#Generated by 

12 atoms
2 atom types

0.0 4.7621350 xlo xhi
0.0 4.7621350 ylo yhi
0.0 4.7621350 zlo zhi

Atoms

1  1     0.000000000         0.000000000         0.000000000
2  1     0.000000000         2.381067514         2.381067514
3  1     2.381067514         0.000000000         2.381067514
4  1     2.381067514         2.381067514         0.000000000
5  2     3.571601391         3.571601391         3.571601391
6  2     3.571601391         1.190533757         3.571601391
7  2     3.571601391         1.190533757         1.190533757
8  2     3.571601391         3.571601391         1.190533757
9  2     1.190533757         3.571601391         1.190533757
10 2     1.190533757         1.190533757         1.190533757
11 2     1.190533757         1.190533757         3.571601391
12 2     1.190533757         3.571601391         3.571601391
