#Generated by 

96 atoms
2 atom types

0.0 9.5242700 xlo xhi
0.0 9.5242700 ylo yhi
0.0 9.5242700 zlo zhi

Atoms

1   1     0.000000000     0.000000000     0.000000000
2   1     0.000000000     0.000000000     4.762135029
3   1     0.000000000     4.762135029     0.000000000
4   1     0.000000000     4.762135029     4.762135029
5   1     4.762135029     0.000000000     0.000000000
6   1     4.762135029     0.000000000     4.762135029
7   1     4.762135029     4.762135029     0.000000000
8   1     4.762135029     4.762135029     4.762135029
9   1     0.000000000     2.381067514     2.381067514
10  1     0.000000000     2.381067514     7.143202782
11  1     0.000000000     7.143202782     2.381067514
12  1     0.000000000     7.143202782     7.143202782
13  1     4.762135029     2.381067514     2.381067514
14  1     4.762135029     2.381067514     7.143202782
15  1     4.762135029     7.143202782     2.381067514
16  1     4.762135029     7.143202782     7.143202782
17  1     2.381067514     0.000000000     2.381067514
18  1     2.381067514     0.000000000     7.143202782
19  1     2.381067514     4.762135029     2.381067514
20  1     2.381067514     4.762135029     7.143202782
21  1     7.143202782     0.000000000     2.381067514
22  1     7.143202782     0.000000000     7.143202782
23  1     7.143202782     4.762135029     2.381067514
24  1     7.143202782     4.762135029     7.143202782
25  1     2.381067514     2.381067514     0.000000000
26  1     2.381067514     2.381067514     4.762135029
27  1     2.381067514     7.143202782     0.000000000
28  1     2.381067514     7.143202782     4.762135029
29  1     7.143202782     2.381067514     0.000000000
30  1     7.143202782     2.381067514     4.762135029
31  1     7.143202782     7.143202782     0.000000000
32  1     7.143202782     7.143202782     4.762135029
33  2     3.571601391     3.571601391     3.571601391
34  2     3.571601391     3.571601391     8.333736420
35  2     3.571601391     8.333736420     3.571601391
36  2     3.571601391     8.333736420     8.333736420
37  2     8.333736420     3.571601391     3.571601391
38  2     8.333736420     3.571601391     8.333736420
39  2     8.333736420     8.333736420     3.571601391
40  2     8.333736420     8.333736420     8.333736420
41  2     3.571601391     1.190533757     3.571601391
42  2     3.571601391     1.190533757     8.333736420
43  2     3.571601391     5.952668667     3.571601391
44  2     3.571601391     5.952668667     8.333736420
45  2     8.333736420     1.190533757     3.571601391
46  2     8.333736420     1.190533757     8.333736420
47  2     8.333736420     5.952668667     3.571601391
48  2     8.333736420     5.952668667     8.333736420
49  2     3.571601391     1.190533757     1.190533757
50  2     3.571601391     1.190533757     5.952668667
51  2     3.571601391     5.952668667     1.190533757
52  2     3.571601391     5.952668667     5.952668667
53  2     8.333736420     1.190533757     1.190533757
54  2     8.333736420     1.190533757     5.952668667
55  2     8.333736420     5.952668667     1.190533757
56  2     8.333736420     5.952668667     5.952668667
57  2     3.571601391     3.571601391     1.190533757
58  2     3.571601391     3.571601391     5.952668667
59  2     3.571601391     8.333736420     1.190533757
60  2     3.571601391     8.333736420     5.952668667
61  2     8.333736420     3.571601391     1.190533757
62  2     8.333736420     3.571601391     5.952668667
63  2     8.333736420     8.333736420     1.190533757
64  2     8.333736420     8.333736420     5.952668667
65  2     1.190533757     3.571601391     1.190533757
66  2     1.190533757     3.571601391     5.952668667
67  2     1.190533757     8.333736420     1.190533757
68  2     1.190533757     8.333736420     5.952668667
69  2     5.952668667     3.571601391     1.190533757
70  2     5.952668667     3.571601391     5.952668667
71  2     5.952668667     8.333736420     1.190533757
72  2     5.952668667     8.333736420     5.952668667
73  2     1.190533757     1.190533757     1.190533757
74  2     1.190533757     1.190533757     5.952668667
75  2     1.190533757     5.952668667     1.190533757
76  2     1.190533757     5.952668667     5.952668667
77  2     5.952668667     1.190533757     1.190533757
78  2     5.952668667     1.190533757     5.952668667
79  2     5.952668667     5.952668667     1.190533757
80  2     5.952668667     5.952668667     5.952668667
81  2     1.190533757     1.190533757     3.571601391
82  2     1.190533757     1.190533757     8.333736420
83  2     1.190533757     5.952668667     3.571601391
84  2     1.190533757     5.952668667     8.333736420
85  2     5.952668667     1.190533757     3.571601391
86  2     5.952668667     1.190533757     8.333736420
87  2     5.952668667     5.952668667     3.571601391
88  2     5.952668667     5.952668667     8.333736420
89  2     1.190533757     3.571601391     3.571601391
90  2     1.190533757     3.571601391     8.333736420
91  2     1.190533757     8.333736420     3.571601391
92  2     1.190533757     8.333736420     8.333736420
93  2     5.952668667     3.571601391     3.571601391
94  2     5.952668667     3.571601391     8.333736420
95  2     5.952668667     8.333736420     3.571601391
96  2     5.952668667     8.333736420     8.333736420
