#Generated by 

32 atoms
2 atom types

0.0 17.878897 xlo xhi
0.0 17.878897 ylo yhi
0.0 17.878897 zlo zhi

Atoms

 1     1    3.939448357     0.000000000     0.000000000
 2     1    3.939448357     3.939448357     3.939448357
 3     1    0.000000000     0.000000000     3.939448357
 4     1    0.000000000     3.939448357     0.000000000
 5     2    0.000000000     0.000000000     0.000000000
 6     2    1.969724178     0.000000000     1.969724178
 7     2    0.000000000     5.909172535     5.909172535
 8     2    3.939448357     1.969724178     1.969724178
 9     2    1.969724178     0.000000000     5.909172535
10     2    1.969724178     1.969724178     0.000000000
11     2    1.969724178     5.909172535     0.000000000
12     2    0.000000000     3.939448357     3.939448357
13     2    1.969724178     3.939448357     5.909172535
14     2    0.000000000     1.969724178     1.969724178
15     2    3.939448357     5.909172535     5.909172535
16     2    1.969724178     3.939448357     1.969724178
17     2    1.969724178     5.909172535     3.939448357
18     2    1.969724178     1.969724178     3.939448357
19     2    3.939448357     0.000000000     3.939448357
20     2    5.909172535     0.000000000     5.909172535
21     2    3.939448357     5.909172535     1.969724178
22     2    0.000000000     1.969724178     5.909172535
23     2    5.909172535     0.000000000     1.969724178
24     2    5.909172535     1.969724178     3.939448357
25     2    5.909172535     5.909172535     3.939448357
26     2    3.939448357     3.939448357     0.000000000
27     2    5.909172535     3.939448357     1.969724178
28     2    3.939448357     1.969724178     5.909172535
29     2    0.000000000     5.909172535     1.969724178
30     2    5.909172535     3.939448357     5.909172535
31     2    5.909172535     5.909172535     0.000000000
32     2    5.909172535     1.969724178     0.000000000