molecular system: 
3 atoms
0 bonds
0 angles
0 dihedrals
0 impropers
2 atom types
0 bond types
0 angle types
0 dihedral types
0 improper types

0.0 4.047779673748059 xlo xhi
0.0 4.047779673748059 ylo yhi
0.0 4.047779673748059 zlo zhi

Masses

     1  47.880000 # Ti   Ti   
     2  15.999400 # O    O    

Atoms

     1      1      1   1.890000   0.000000   2.023890   0.000000 # Ti
     2      2      2  -0.945000   0.000000   2.023890   2.023890 # O
     3      3      2  -0.945000   2.023890   2.023890   2.023890 # O

PairIJ Coeffs

  1   1         0.000000     1.000000         0.000000 # Ti-Ti
  1   2   1155947.756946     0.178000      1067.652611 # Ti-O
  2   2    208070.476335     0.265000      1962.270404 # O-O
