#Generated by 
500 atoms
2 atom types

0.0 18.106314 xlo xhi
0.0 18.106314 ylo yhi
0.0 18.106314 zlo zhi

Atoms

1    2  0.00000     0.00000     0.00000
2    1  0.00000     0.00000     3.62126
3    1  0.00000     0.00000     7.24253
4    1  0.00000     0.00000    10.86379
5    1  0.00000     0.00000    14.48505
6    1  0.00000     3.62126     0.00000
7    1  0.00000     3.62126     3.62126
8    1  0.00000     3.62126     7.24253
9    1  0.00000     3.62126    10.86379
10   1  0.00000     3.62126    14.48505
11   1  0.00000     7.24253     0.00000
12   1  0.00000     7.24253     3.62126
13   1  0.00000     7.24253     7.24253
14   1  0.00000     7.24253    10.86379
15   1  0.00000     7.24253    14.48505
16   1  0.00000    10.86379     0.00000
17   1  0.00000    10.86379     3.62126
18   1  0.00000    10.86379     7.24253
19   1  0.00000    10.86379    10.86379
20   1  0.00000    10.86379    14.48505
21   1  0.00000    14.48505     0.00000
22   1  0.00000    14.48505     3.62126
23   1  0.00000    14.48505     7.24253
24   1  0.00000    14.48505    10.86379
25   1  0.00000    14.48505    14.48505
26   1  3.62126     0.00000     0.00000
27   1  3.62126     0.00000     3.62126
28   1  3.62126     0.00000     7.24253
29   1  3.62126     0.00000    10.86379
30   1  3.62126     0.00000    14.48505
31   1  3.62126     3.62126     0.00000
32   1  3.62126     3.62126     3.62126
33   1  3.62126     3.62126     7.24253
34   1  3.62126     3.62126    10.86379
35   1  3.62126     3.62126    14.48505
36   1  3.62126     7.24253     0.00000
37   1  3.62126     7.24253     3.62126
38   1  3.62126     7.24253     7.24253
39   1  3.62126     7.24253    10.86379
40   1  3.62126     7.24253    14.48505
41   1  3.62126    10.86379     0.00000
42   1  3.62126    10.86379     3.62126
43   1  3.62126    10.86379     7.24253
44   1  3.62126    10.86379    10.86379
45   1  3.62126    10.86379    14.48505
46   1  3.62126    14.48505     0.00000
47   1  3.62126    14.48505     3.62126
48   1  3.62126    14.48505     7.24253
49   1  3.62126    14.48505    10.86379
50   1  3.62126    14.48505    14.48505
51   1  7.24253     0.00000     0.00000
52   1  7.24253     0.00000     3.62126
53   1  7.24253     0.00000     7.24253
54   1  7.24253     0.00000    10.86379
55   1  7.24253     0.00000    14.48505
56   1  7.24253     3.62126     0.00000
57   1  7.24253     3.62126     3.62126
58   1  7.24253     3.62126     7.24253
59   1  7.24253     3.62126    10.86379
60   1  7.24253     3.62126    14.48505
61   1  7.24253     7.24253     0.00000
62   1  7.24253     7.24253     3.62126
63   1  7.24253     7.24253     7.24253
64   1  7.24253     7.24253    10.86379
65   1  7.24253     7.24253    14.48505
66   1  7.24253    10.86379     0.00000
67   1  7.24253    10.86379     3.62126
68   1  7.24253    10.86379     7.24253
69   1  7.24253    10.86379    10.86379
70   1  7.24253    10.86379    14.48505
71   1  7.24253    14.48505     0.00000
72   1  7.24253    14.48505     3.62126
73   1  7.24253    14.48505     7.24253
74   1  7.24253    14.48505    10.86379
75   1  7.24253    14.48505    14.48505
76   1 10.86379     0.00000     0.00000
77   1 10.86379     0.00000     3.62126
78   1 10.86379     0.00000     7.24253
79   1 10.86379     0.00000     10.86379
80   1 10.86379     0.00000     14.48505
81   1 10.86379     3.62126     0.00000
82   1 10.86379     3.62126     3.62126
83   1 10.86379     3.62126     7.24253
84   1 10.86379     3.62126     10.86379
85   1 10.86379     3.62126     14.48505
86   1 10.86379     7.24253     0.00000
87   1 10.86379     7.24253     3.62126
88   1 10.86379     7.24253     7.24253
89   1 10.86379     7.24253     10.86379
90   1 10.86379     7.24253     14.48505
91   1 10.86379     10.86379     0.00000
92   1 10.86379     10.86379     3.62126
93   1  10.86379     10.86379     7.24253
94   1  10.86379     10.86379     10.86379
95   1  10.86379     10.86379     14.48505
96   1  10.86379     14.48505     0.00000
97   1  10.86379     14.48505     3.62126
98   1  10.86379     14.48505     7.24253
99   1  10.86379     14.48505     10.86379
100  1  10.86379     14.48505     14.48505
101  1  14.48505     0.00000     0.00000
102  1  14.48505     0.00000     3.62126
103  1  14.48505     0.00000     7.24253
104  1  14.48505     0.00000     10.86379
105  1  14.48505     0.00000     14.48505
106  1  14.48505     3.62126     0.00000
107  1  14.48505     3.62126     3.62126
108  1  14.48505     3.62126     7.24253
109  1  14.48505     3.62126     10.86379
110  1  14.48505     3.62126     14.48505
111  1  14.48505     7.24253     0.00000
112  1  14.48505     7.24253     3.62126
113  1  14.48505     7.24253     7.24253
114  1  14.48505     7.24253     10.86379
115  1  14.48505     7.24253     14.48505
116  1  14.48505     10.86379     0.00000
117  1  14.48505     10.86379     3.62126
118  1  14.48505     10.86379     7.24253
119  1  14.48505     10.86379     10.86379
120  1  14.48505     10.86379     14.48505
121  1  14.48505     14.48505     0.00000
122  1  14.48505     14.48505     3.62126
123  1  14.48505     14.48505     7.24253
124  1  14.48505     14.48505     10.86379
125  1  14.48505     14.48505     14.48505
126  1  0.00000     1.81063     1.81063
127  1  0.00000     1.81063     5.43189
128  1  0.00000     1.81063     9.05316
129  1  0.00000     1.81063     12.67442
130  1  0.00000     1.81063     16.29568
131  1  0.00000     5.43189     1.81063
132  1  0.00000     5.43189     5.43189
133  1  0.00000     5.43189     9.05316
134  1  0.00000     5.43189     12.67442
135  1  0.00000     5.43189     16.29568
136  1  0.00000     9.05316     1.81063
137  1  0.00000     9.05316     5.43189
138  1  0.00000     9.05316     9.05316
139  1  0.00000     9.05316     12.67442
140  1  0.00000     9.05316     16.29568
141  1  0.00000     12.67442     1.81063
142  1  0.00000     12.67442     5.43189
143  1  0.00000     12.67442     9.05316
144  1  0.00000     12.67442     12.67442
145  1  0.00000     12.67442     16.29568
146  1  0.00000     16.29568     1.81063
147  1  0.00000     16.29568     5.43189
148  1  0.00000     16.29568     9.05316
149  1  0.00000     16.29568     12.67442
150  1  0.00000     16.29568     16.29568
151  1  3.62126     1.81063     1.81063
152  1  3.62126     1.81063     5.43189
153  1  3.62126     1.81063     9.05316
154  1  3.62126     1.81063     12.67442
155  1  3.62126     1.81063     16.29568
156  1  3.62126     5.43189     1.81063
157  1  3.62126     5.43189     5.43189
158  1  3.62126     5.43189     9.05316
159  1  3.62126     5.43189     12.67442
160  1  3.62126     5.43189     16.29568
161  1  3.62126     9.05316     1.81063
162  1  3.62126     9.05316     5.43189
163  1  3.62126     9.05316     9.05316
164  1  3.62126     9.05316     12.67442
165  1  3.62126     9.05316     16.29568
166  1  3.62126     12.67442     1.81063
167  1  3.62126     12.67442     5.43189
168  1  3.62126     12.67442     9.05316
169  1  3.62126     12.67442     12.67442
170  1  3.62126     12.67442     16.29568
171  1  3.62126     16.29568     1.81063
172  1  3.62126     16.29568     5.43189
173  1  3.62126     16.29568     9.05316
174  1  3.62126     16.29568     12.67442
175  1  3.62126     16.29568     16.29568
176  1  7.24253     1.81063     1.81063
177  1  7.24253     1.81063     5.43189
178  1  7.24253     1.81063     9.05316
179  1  7.24253     1.81063     12.67442
180  1  7.24253     1.81063     16.29568
181  1  7.24253     5.43189     1.81063
182  1  7.24253     5.43189     5.43189
183  1  7.24253     5.43189     9.05316
184  1  7.24253     5.43189     12.67442
185  1  7.24253     5.43189     16.29568
186  1  7.24253     9.05316     1.81063
187  1  7.24253     9.05316     5.43189
188  1  7.24253     9.05316     9.05316
189  1  7.24253     9.05316     12.67442
190  1  7.24253     9.05316     16.29568
191  1  7.24253     12.67442     1.81063
192  1  7.24253     12.67442     5.43189
193  1  7.24253     12.67442     9.05316
194  1  7.24253     12.67442     12.67442
195  1  7.24253     12.67442     16.29568
196  1  7.24253     16.29568     1.81063
197  1  7.24253     16.29568     5.43189
198  1  7.24253     16.29568     9.05316
199  1  7.24253     16.29568     12.67442
200  1  7.24253     16.29568     16.29568
201  1  10.86379     1.81063     1.81063
202  1  10.86379     1.81063     5.43189
203  1  10.86379     1.81063     9.05316
204  1  10.86379     1.81063     12.67442
205  1  10.86379     1.81063     16.29568
206  1  10.86379     5.43189     1.81063
207  1  10.86379     5.43189     5.43189
208  1  10.86379     5.43189     9.05316
209  1  10.86379     5.43189     12.67442
210  1  10.86379     5.43189     16.29568
211  1  10.86379     9.05316     1.81063
212  1  10.86379     9.05316     5.43189
213  1  10.86379     9.05316     9.05316
214  1  10.86379     9.05316     12.67442
215  1  10.86379     9.05316     16.29568
216  1  10.86379     12.67442     1.81063
217  1  10.86379     12.67442     5.43189
218  1  10.86379     12.67442     9.05316
219  1  10.86379     12.67442     12.67442
220  1  10.86379     12.67442     16.29568
221  1  10.86379     16.29568     1.81063
222  1  10.86379     16.29568     5.43189
223  1  10.86379     16.29568     9.05316
224  1  10.86379     16.29568     12.67442
225  1  10.86379     16.29568     16.29568
226  1  14.48505     1.81063     1.81063
227  1  14.48505     1.81063     5.43189
228  1  14.48505     1.81063     9.05316
229  1  14.48505     1.81063     12.67442
230  1  14.48505     1.81063     16.29568
231  1  14.48505     5.43189     1.81063
232  1  14.48505     5.43189     5.43189
233  1  14.48505     5.43189     9.05316
234  1  14.48505     5.43189     12.67442
235  1  14.48505     5.43189     16.29568
236  1  14.48505     9.05316     1.81063
237  1  14.48505     9.05316     5.43189
238  1  14.48505     9.05316     9.05316
239  1  14.48505     9.05316     12.67442
240  1  14.48505     9.05316     16.29568
241  1  14.48505     12.67442     1.81063
242  1  14.48505     12.67442     5.43189
243  1  14.48505     12.67442     9.05316
244  1  14.48505     12.67442     12.67442
245  1  14.48505     12.67442     16.29568
246  1  14.48505     16.29568     1.81063
247  1  14.48505     16.29568     5.43189
248  1  14.48505     16.29568     9.05316
249  1  14.48505     16.29568     12.67442
250  1  14.48505     16.29568     16.29568
251  1  1.81063     0.00000     1.81063
252  1  1.81063     0.00000     5.43189
253  1  1.81063     0.00000     9.05316
254  1  1.81063     0.00000     12.67442
255  1  1.81063     0.00000     16.29568
256  1  1.81063     3.62126     1.81063
257  1  1.81063     3.62126     5.43189
258  1  1.81063     3.62126     9.05316
259  1  1.81063     3.62126     12.67442
260  1  1.81063     3.62126     16.29568
261  1  1.81063     7.24253     1.81063
262  1  1.81063     7.24253     5.43189
263  1  1.81063     7.24253     9.05316
264  1  1.81063     7.24253     12.67442
265  1  1.81063     7.24253     16.29568
266  1  1.81063     10.86379     1.81063
267  1  1.81063     10.86379     5.43189
268  1  1.81063     10.86379     9.05316
269  1  1.81063     10.86379     12.67442
270  1  1.81063     10.86379     16.29568
271  1  1.81063     14.48505     1.81063
272  1  1.81063     14.48505     5.43189
273  1  1.81063     14.48505     9.05316
274  1  1.81063     14.48505     12.67442
275  1  1.81063     14.48505     16.29568
276  1  5.43189     0.00000     1.81063
277  1  5.43189     0.00000     5.43189
278  1  5.43189     0.00000     9.05316
279  1  5.43189     0.00000     12.67442
280  1  5.43189     0.00000     16.29568
281  1  5.43189     3.62126     1.81063
282  1  5.43189     3.62126     5.43189
283  1  5.43189     3.62126     9.05316
284  1  5.43189     3.62126     12.67442
285  1  5.43189     3.62126     16.29568
286  1  5.43189     7.24253     1.81063
287  1  5.43189     7.24253     5.43189
288  1  5.43189     7.24253     9.05316
289  1  5.43189     7.24253     12.67442
290  1  5.43189     7.24253     16.29568
291  1  5.43189     10.86379     1.81063
292  1  5.43189     10.86379     5.43189
293  1  5.43189     10.86379     9.05316
294  1  5.43189     10.86379     12.67442
295  1  5.43189     10.86379     16.29568
296  1  5.43189     14.48505     1.81063
297  1  5.43189     14.48505     5.43189
298  1  5.43189     14.48505     9.05316
299  1  5.43189     14.48505     12.67442
300  1  5.43189     14.48505     16.29568
301  1  9.05316     0.00000     1.81063
302  1  9.05316     0.00000     5.43189
303  1  9.05316     0.00000     9.05316
304  1  9.05316     0.00000     12.67442
305  1  9.05316     0.00000     16.29568
306  1  9.05316     3.62126     1.81063
307  1  9.05316     3.62126     5.43189
308  1  9.05316     3.62126     9.05316
309  1  9.05316     3.62126     12.67442
310  1  9.05316     3.62126     16.29568
311  1  9.05316     7.24253     1.81063
312  1  9.05316     7.24253     5.43189
313  1  9.05316     7.24253     9.05316
314  1  9.05316     7.24253     12.67442
315  1  9.05316     7.24253     16.29568
316  1  9.05316     10.86379     1.81063
317  1  9.05316     10.86379     5.43189
318  1  9.05316     10.86379     9.05316
319  1  9.05316     10.86379     12.67442
320  1  9.05316     10.86379     16.29568
321  1  9.05316     14.48505     1.81063
322  1  9.05316     14.48505     5.43189
323  1  9.05316     14.48505     9.05316
324  1  9.05316     14.48505     12.67442
325  1  9.05316     14.48505     16.29568
326  1  12.67442     0.00000     1.81063
327  1  12.67442     0.00000     5.43189
328  1  12.67442     0.00000     9.05316
329  1  12.67442     0.00000     12.67442
330  1  12.67442     0.00000     16.29568
331  1  12.67442     3.62126     1.81063
332  1  12.67442     3.62126     5.43189
333  1  12.67442     3.62126     9.05316
334  1  12.67442     3.62126     12.67442
335  1  12.67442     3.62126     16.29568
336  1  12.67442     7.24253     1.81063
337  1  12.67442     7.24253     5.43189
338  1  12.67442     7.24253     9.05316
339  1  12.67442     7.24253     12.67442
340  1  12.67442     7.24253     16.29568
341  1  12.67442     10.86379     1.81063
342  1  12.67442     10.86379     5.43189
343  1  12.67442     10.86379     9.05316
344  1  12.67442     10.86379     12.67442
345  1  12.67442     10.86379     16.29568
346  1  12.67442     14.48505     1.81063
347  1  12.67442     14.48505     5.43189
348  1  12.67442     14.48505     9.05316
349  1  12.67442     14.48505     12.67442
350  1  12.67442     14.48505     16.29568
351  1  16.29568     0.00000     1.81063
352  1  16.29568     0.00000     5.43189
353  1  16.29568     0.00000     9.05316
354  1  16.29568     0.00000     12.67442
355  1  16.29568     0.00000     16.29568
356  1  16.29568     3.62126     1.81063
357  1  16.29568     3.62126     5.43189
358  1  16.29568     3.62126     9.05316
359  1  16.29568     3.62126     12.67442
360  1  16.29568     3.62126     16.29568
361  1  16.29568     7.24253     1.81063
362  1  16.29568     7.24253     5.43189
363  1  16.29568     7.24253     9.05316
364  1  16.29568     7.24253     12.67442
365  1  16.29568     7.24253     16.29568
366  1  16.29568     10.86379     1.81063
367  1  16.29568     10.86379     5.43189
368  1  16.29568     10.86379     9.05316
369  1  16.29568     10.86379     12.67442
370  1  16.29568     10.86379     16.29568
371  1  16.29568     14.48505     1.81063
372  1  16.29568     14.48505     5.43189
373  1  16.29568     14.48505     9.05316
374  1  16.29568     14.48505     12.67442
375  1  16.29568     14.48505     16.29568
376  1  1.81063     1.81063     0.00000
377  1  1.81063     1.81063     3.62126
378  1  1.81063     1.81063     7.24253
379  1  1.81063     1.81063     10.86379
380  1  1.81063     1.81063     14.48505
381  1  1.81063     5.43189     0.00000
382  1  1.81063     5.43189     3.62126
383  1  1.81063     5.43189     7.24253
384  1  1.81063     5.43189     10.86379
385  1  1.81063     5.43189     14.48505
386  1  1.81063     9.05316     0.00000
387  1  1.81063     9.05316     3.62126
388  1  1.81063     9.05316     7.24253
389  1  1.81063     9.05316     10.86379
390  1  1.81063     9.05316     14.48505
391  1  1.81063     12.67442     0.00000
392  1  1.81063     12.67442     3.62126
393  1  1.81063     12.67442     7.24253
394  1  1.81063     12.67442     10.86379
395  1  1.81063     12.67442     14.48505
396  1  1.81063     16.29568     0.00000
397  1  1.81063     16.29568     3.62126
398  1  1.81063     16.29568     7.24253
399  1  1.81063     16.29568     10.86379
400  1  1.81063     16.29568     14.48505
401  1  5.43189     1.81063     0.00000
402  1  5.43189     1.81063     3.62126
403  1  5.43189     1.81063     7.24253
404  1  5.43189     1.81063     10.86379
405  1  5.43189     1.81063     14.48505
406  1  5.43189     5.43189     0.00000
407  1  5.43189     5.43189     3.62126
408  1  5.43189     5.43189     7.24253
409  1  5.43189     5.43189     10.86379
410  1  5.43189     5.43189     14.48505
411  1  5.43189     9.05316     0.00000
412  1  5.43189     9.05316     3.62126
413  1  5.43189     9.05316     7.24253
414  1  5.43189     9.05316     10.86379
415  1  5.43189     9.05316     14.48505
416  1  5.43189     12.67442     0.00000
417  1  5.43189     12.67442     3.62126
418  1  5.43189     12.67442     7.24253
419  1  5.43189     12.67442     10.86379
420  1  5.43189     12.67442     14.48505
421  1  5.43189     16.29568     0.00000
422  1  5.43189     16.29568     3.62126
423  1  5.43189     16.29568     7.24253
424  1  5.43189     16.29568     10.86379
425  1  5.43189     16.29568     14.48505
426  1  9.05316     1.81063     0.00000
427  1  9.05316     1.81063     3.62126
428  1  9.05316     1.81063     7.24253
429  1  9.05316     1.81063     10.86379
430  1  9.05316     1.81063     14.48505
431  1  9.05316     5.43189     0.00000
432  1  9.05316     5.43189     3.62126
433  1  9.05316     5.43189     7.24253
434  1  9.05316     5.43189     10.86379
435  1  9.05316     5.43189     14.48505
436  1  9.05316     9.05316     0.00000
437  1  9.05316     9.05316     3.62126
438  1  9.05316     9.05316     7.24253
439  1  9.05316     9.05316     10.86379
440  1  9.05316     9.05316     14.48505
441  1  9.05316     12.67442     0.00000
442  1  9.05316     12.67442     3.62126
443  1  9.05316     12.67442     7.24253
444  1  9.05316     12.67442     10.86379
445  1  9.05316     12.67442     14.48505
446  1  9.05316     16.29568     0.00000
447  1  9.05316     16.29568     3.62126
448  1  9.05316     16.29568     7.24253
449  1  9.05316     16.29568     10.86379
450  1  9.05316     16.29568     14.48505
451  1  12.67442     1.81063     0.00000
452  1  12.67442     1.81063     3.62126
453  1  12.67442     1.81063     7.24253
454  1  12.67442     1.81063     10.86379
455  1  12.67442     1.81063     14.48505
456  1  12.67442     5.43189     0.00000
457  1  12.67442     5.43189     3.62126
458  1  12.67442     5.43189     7.24253
459  1  12.67442     5.43189     10.86379
460  1  12.67442     5.43189     14.48505
461  1  12.67442     9.05316     0.00000
462  1  12.67442     9.05316     3.62126
463  1  12.67442     9.05316     7.24253
464  1  12.67442     9.05316     10.86379
465  1  12.67442     9.05316     14.48505
466  1  12.67442     12.67442     0.00000
467  1  12.67442     12.67442     3.62126
468  1  12.67442     12.67442     7.24253
469  1  12.67442     12.67442     10.86379
470  1  12.67442     12.67442     14.48505
471  1  12.67442     16.29568     0.00000
472  1  12.67442     16.29568     3.62126
473  1  12.67442     16.29568     7.24253
474  1  12.67442     16.29568     10.86379
475  1  12.67442     16.29568     14.48505
476  1  16.29568     1.81063     0.00000
477  1  16.29568     1.81063     3.62126
478  1  16.29568     1.81063     7.24253
479  1  16.29568     1.81063     10.86379
480  1  16.29568     1.81063     14.48505
481  1  16.29568     5.43189     0.00000
482  1  16.29568     5.43189     3.62126
483  1  16.29568     5.43189     7.24253
484  1  16.29568     5.43189     10.86379
485  1  16.29568     5.43189     14.48505
486  1  16.29568     9.05316     0.00000
487  1  16.29568     9.05316     3.62126
488  1  16.29568     9.05316     7.24253
489  1  16.29568     9.05316     10.86379
490  1  16.29568     9.05316     14.48505
491  1  16.29568     12.67442     0.00000
492  1  16.29568     12.67442     3.62126
493  1  16.29568     12.67442     7.24253
494  1  16.29568     12.67442     10.86379
495  1  16.29568     12.67442     14.48505
496  1  16.29568     16.29568     0.00000
497  1  16.29568     16.29568     3.62126
498  1  16.29568     16.29568     7.24253
499  1  16.29568     16.29568     10.86379
500  1  16.29568     16.29568     14.48505
