molecular system: 
3 atoms
0 bonds
0 angles
0 dihedrals
0 impropers
2 atom types
0 bond types
0 angle types
0 dihedral types
0 improper types

0.0 4.2764543615275405 xlo xhi
0.0 4.2764543615275405 ylo yhi
0.0 4.2764543615275405 zlo zhi

Masses

     1  39.098300 # K    K    
     2  15.999400 # O    O    

Atoms

     1      1      1   0.472500   2.138227   2.138227   0.000000 # K
     2      2      1   0.472500   2.138227   0.000000   0.000000 # K
     3      3      2  -0.945000   0.000000   2.138227   0.000000 # O

PairIJ Coeffs

  1   1         0.000000     1.000000         0.000000 # K-K
  1   2     52688.046848     0.290000         0.000000 # K-O
  2   2    208070.476335     0.265000      1962.270404 # O-O
