molecular system: 
400 atoms
0 bonds
0 angles
0 dihedrals
0 impropers
2 atom types
0 bond types
0 angle types
0 dihedral types
0 improper types

0.0 21.97172990006844 xlo xhi
0.0 21.97172990006844 ylo yhi
0.0 21.97172990006844 zlo zhi

Masses

     1  55.847000 # Fe3+ Fe3+ 
     2  15.999400 # O    O    

Atoms

     1      1      1   1.417500  13.732331  10.985865  13.732331 # Fe3+
     2      2      1   1.417500   8.239399  10.985865  16.478797 # Fe3+
     3      3      1   1.417500   8.239399  16.478797  10.985865 # Fe3+
     4      4      1   1.417500  10.985865   0.000000  16.478797 # Fe3+
     5      5      1   1.417500  10.985865  16.478797   0.000000 # Fe3+
     6      6      1   1.417500  19.225264  13.732331  10.985865 # Fe3+
     7      7      1   1.417500   8.239399  16.478797  13.732331 # Fe3+
     8      8      1   1.417500  16.478797  16.478797  16.478797 # Fe3+
     9      9      1   1.417500   8.239399   5.492932  19.225264 # Fe3+
    10     10      1   1.417500   2.746466   2.746466  16.478797 # Fe3+
    11     11      1   1.417500  16.478797   5.492932  16.478797 # Fe3+
    12     12      1   1.417500   0.000000   5.492932   2.746466 # Fe3+
    13     13      1   1.417500  19.225264  10.985865  13.732331 # Fe3+
    14     14      1   1.417500   2.746466   0.000000  19.225264 # Fe3+
    15     15      1   1.417500   2.746466  19.225264  10.985865 # Fe3+
    16     16      1   1.417500   5.492932   0.000000  19.225264 # Fe3+
    17     17      1   1.417500  10.985865   2.746466  10.985865 # Fe3+
    18     18      1   1.417500   5.492932  16.478797   8.239399 # Fe3+
    19     19      1   1.417500  16.478797  13.732331  13.732331 # Fe3+
    20     20      1   1.417500   5.492932   0.000000  10.985865 # Fe3+
    21     21      1   1.417500  16.478797   0.000000   8.239399 # Fe3+
    22     22      1   1.417500   5.492932  10.985865  16.478797 # Fe3+
    23     23      1   1.417500   2.746466   0.000000  13.732331 # Fe3+
    24     24      1   1.417500   0.000000   0.000000   5.492932 # Fe3+
    25     25      1   1.417500   0.000000  10.985865   5.492932 # Fe3+
    26     26      1   1.417500   2.746466  13.732331  16.478797 # Fe3+
    27     27      1   1.417500  16.478797  13.732331  19.225264 # Fe3+
    28     28      1   1.417500   0.000000  10.985865  13.732331 # Fe3+
    29     29      1   1.417500   0.000000  13.732331   2.746466 # Fe3+
    30     30      1   1.417500   5.492932  19.225264  16.478797 # Fe3+
    31     31      1   1.417500   8.239399  13.732331   2.746466 # Fe3+
    32     32      1   1.417500  13.732331   8.239399   2.746466 # Fe3+
    33     33      1   1.417500  16.478797   8.239399   0.000000 # Fe3+
    34     34      1   1.417500  10.985865  19.225264   8.239399 # Fe3+
    35     35      1   1.417500   0.000000  19.225264  19.225264 # Fe3+
    36     36      1   1.417500   8.239399  13.732331  10.985865 # Fe3+
    37     37      1   1.417500   0.000000   5.492932  10.985865 # Fe3+
    38     38      1   1.417500  19.225264  19.225264  19.225264 # Fe3+
    39     39      1   1.417500  10.985865   0.000000   8.239399 # Fe3+
    40     40      1   1.417500  13.732331  19.225264   0.000000 # Fe3+
    41     41      1   1.417500  16.478797  19.225264  10.985865 # Fe3+
    42     42      1   1.417500   8.239399  13.732331   0.000000 # Fe3+
    43     43      1   1.417500   0.000000  19.225264  16.478797 # Fe3+
    44     44      1   1.417500   8.239399  13.732331   8.239399 # Fe3+
    45     45      1   1.417500   5.492932   0.000000   8.239399 # Fe3+
    46     46      1   1.417500   0.000000   2.746466  10.985865 # Fe3+
    47     47      1   1.417500  16.478797  19.225264   0.000000 # Fe3+
    48     48      1   1.417500   8.239399  10.985865   8.239399 # Fe3+
    49     49      1   1.417500   0.000000  13.732331   5.492932 # Fe3+
    50     50      1   1.417500  13.732331  10.985865   0.000000 # Fe3+
    51     51      1   1.417500   8.239399  10.985865  10.985865 # Fe3+
    52     52      1   1.417500   8.239399   0.000000  19.225264 # Fe3+
    53     53      1   1.417500  19.225264   5.492932  13.732331 # Fe3+
    54     54      1   1.417500   0.000000  13.732331  10.985865 # Fe3+
    55     55      1   1.417500  10.985865   8.239399  10.985865 # Fe3+
    56     56      1   1.417500  10.985865  19.225264   0.000000 # Fe3+
    57     57      1   1.417500   2.746466   0.000000  10.985865 # Fe3+
    58     58      1   1.417500  10.985865   2.746466   5.492932 # Fe3+
    59     59      1   1.417500   0.000000  13.732331   0.000000 # Fe3+
    60     60      1   1.417500   0.000000  10.985865   2.746466 # Fe3+
    61     61      1   1.417500  19.225264  16.478797   0.000000 # Fe3+
    62     62      1   1.417500   0.000000   5.492932  16.478797 # Fe3+
    63     63      1   1.417500   5.492932   8.239399   8.239399 # Fe3+
    64     64      1   1.417500  19.225264   8.239399   8.239399 # Fe3+
    65     65      1   1.417500  16.478797  19.225264  16.478797 # Fe3+
    66     66      1   1.417500   8.239399   8.239399   2.746466 # Fe3+
    67     67      1   1.417500  10.985865   2.746466   8.239399 # Fe3+
    68     68      1   1.417500   5.492932  13.732331  19.225264 # Fe3+
    69     69      1   1.417500   0.000000   2.746466  13.732331 # Fe3+
    70     70      1   1.417500   2.746466   2.746466  13.732331 # Fe3+
    71     71      1   1.417500   0.000000   2.746466   5.492932 # Fe3+
    72     72      1   1.417500   5.492932  10.985865   8.239399 # Fe3+
    73     73      1   1.417500   0.000000  10.985865   8.239399 # Fe3+
    74     74      1   1.417500   5.492932   8.239399   2.746466 # Fe3+
    75     75      1   1.417500  10.985865  16.478797  13.732331 # Fe3+
    76     76      1   1.417500   0.000000  13.732331   8.239399 # Fe3+
    77     77      1   1.417500   8.239399  13.732331  13.732331 # Fe3+
    78     78      1   1.417500  16.478797   2.746466  13.732331 # Fe3+
    79     79      1   1.417500  10.985865  10.985865   0.000000 # Fe3+
    80     80      1   1.417500  10.985865   5.492932  13.732331 # Fe3+
    81     81      1   1.417500   2.746466  16.478797   5.492932 # Fe3+
    82     82      1   1.417500  10.985865  13.732331   8.239399 # Fe3+
    83     83      1   1.417500  10.985865  10.985865   5.492932 # Fe3+
    84     84      1   1.417500   8.239399  10.985865   5.492932 # Fe3+
    85     85      1   1.417500   5.492932   2.746466  10.985865 # Fe3+
    86     86      1   1.417500  19.225264  13.732331   8.239399 # Fe3+
    87     87      1   1.417500   2.746466   2.746466  19.225264 # Fe3+
    88     88      1   1.417500   5.492932  16.478797  13.732331 # Fe3+
    89     89      1   1.417500   0.000000  13.732331  13.732331 # Fe3+
    90     90      1   1.417500   5.492932  16.478797  10.985865 # Fe3+
    91     91      1   1.417500  13.732331   2.746466   5.492932 # Fe3+
    92     92      1   1.417500   8.239399  13.732331  16.478797 # Fe3+
    93     93      1   1.417500   8.239399  19.225264  13.732331 # Fe3+
    94     94      1   1.417500   5.492932  10.985865   0.000000 # Fe3+
    95     95      1   1.417500  10.985865  13.732331   5.492932 # Fe3+
    96     96      1   1.417500  19.225264  13.732331   2.746466 # Fe3+
    97     97      1   1.417500   2.746466   2.746466   8.239399 # Fe3+
    98     98      1   1.417500   0.000000   2.746466   8.239399 # Fe3+
    99     99      1   1.417500  16.478797   5.492932  13.732331 # Fe3+
   100    100      1   1.417500  19.225264   0.000000   2.746466 # Fe3+
   101    101      1   1.417500  19.225264   8.239399  13.732331 # Fe3+
   102    102      1   1.417500   5.492932   8.239399  13.732331 # Fe3+
   103    103      1   1.417500  10.985865  19.225264   2.746466 # Fe3+
   104    104      1   1.417500  16.478797   0.000000   5.492932 # Fe3+
   105    105      1   1.417500  13.732331  13.732331  16.478797 # Fe3+
   106    106      1   1.417500  16.478797   8.239399   5.492932 # Fe3+
   107    107      1   1.417500   5.492932  19.225264  10.985865 # Fe3+
   108    108      1   1.417500   8.239399   2.746466   8.239399 # Fe3+
   109    109      1   1.417500  16.478797   2.746466   5.492932 # Fe3+
   110    110      1   1.417500  10.985865   2.746466  16.478797 # Fe3+
   111    111      1   1.417500  10.985865   0.000000  10.985865 # Fe3+
   112    112      1   1.417500   5.492932  13.732331   2.746466 # Fe3+
   113    113      1   1.417500  10.985865   5.492932   5.492932 # Fe3+
   114    114      1   1.417500   5.492932   0.000000  16.478797 # Fe3+
   115    115      1   1.417500  19.225264  16.478797  13.732331 # Fe3+
   116    116      1   1.417500   2.746466  16.478797  13.732331 # Fe3+
   117    117      1   1.417500   5.492932  10.985865  10.985865 # Fe3+
   118    118      1   1.417500  19.225264   5.492932   0.000000 # Fe3+
   119    119      1   1.417500   8.239399   5.492932   5.492932 # Fe3+
   120    120      1   1.417500   5.492932  19.225264   2.746466 # Fe3+
   121    121      1   1.417500  10.985865  19.225264  19.225264 # Fe3+
   122    122      1   1.417500  13.732331   0.000000  13.732331 # Fe3+
   123    123      1   1.417500  10.985865  13.732331  13.732331 # Fe3+
   124    124      1   1.417500   0.000000   0.000000  16.478797 # Fe3+
   125    125      1   1.417500   5.492932  19.225264   0.000000 # Fe3+
   126    126      1   1.417500  13.732331   5.492932   0.000000 # Fe3+
   127    127      1   1.417500   0.000000   8.239399   5.492932 # Fe3+
   128    128      1   1.417500   0.000000  16.478797   5.492932 # Fe3+
   129    129      1   1.417500  10.985865  13.732331  10.985865 # Fe3+
   130    130      1   1.417500  13.732331   5.492932   5.492932 # Fe3+
   131    131      1   1.417500  16.478797   2.746466  16.478797 # Fe3+
   132    132      1   1.417500   8.239399  16.478797   8.239399 # Fe3+
   133    133      1   1.417500   5.492932  16.478797   0.000000 # Fe3+
   134    134      1   1.417500   0.000000   2.746466   0.000000 # Fe3+
   135    135      1   1.417500  10.985865   0.000000   0.000000 # Fe3+
   136    136      1   1.417500   0.000000   5.492932   8.239399 # Fe3+
   137    137      1   1.417500   8.239399  10.985865   2.746466 # Fe3+
   138    138      1   1.417500   0.000000  16.478797  10.985865 # Fe3+
   139    139      1   1.417500  19.225264  10.985865   8.239399 # Fe3+
   140    140      1   1.417500  10.985865   5.492932   8.239399 # Fe3+
   141    141      1   1.417500  10.985865   8.239399   8.239399 # Fe3+
   142    142      1   1.417500   5.492932  10.985865  13.732331 # Fe3+
   143    143      1   1.417500   8.239399  19.225264  10.985865 # Fe3+
   144    144      1   1.417500   8.239399  13.732331  19.225264 # Fe3+
   145    145      1   1.417500   2.746466   5.492932   0.000000 # Fe3+
   146    146      1   1.417500  13.732331  16.478797  10.985865 # Fe3+
   147    147      1   1.417500  19.225264  10.985865  19.225264 # Fe3+
   148    148      1   1.417500   0.000000  13.732331  19.225264 # Fe3+
   149    149      1   1.417500  10.985865  16.478797   2.746466 # Fe3+
   150    150      1   1.417500  16.478797  19.225264  13.732331 # Fe3+
   151    151      1   1.417500  16.478797   5.492932   8.239399 # Fe3+
   152    152      1   1.417500   2.746466   8.239399  16.478797 # Fe3+
   153    153      1   1.417500  19.225264   5.492932   8.239399 # Fe3+
   154    154      1   1.417500  10.985865  19.225264  16.478797 # Fe3+
   155    155      1   1.417500  19.225264   0.000000   0.000000 # Fe3+
   156    156      1   1.417500  19.225264  16.478797  10.985865 # Fe3+
   157    157      1   1.417500   2.746466   0.000000  16.478797 # Fe3+
   158    158      1   1.417500   5.492932  13.732331  16.478797 # Fe3+
   159    159      1   1.417500   8.239399   0.000000   0.000000 # Fe3+
   160    160      1   1.417500  16.478797   8.239399   8.239399 # Fe3+
   161    161      2  -0.945000  13.732331  19.225264  10.985865 # O
   162    162      2  -0.945000  19.225264   2.746466   8.239399 # O
   163    163      2  -0.945000   2.746466   8.239399  19.225264 # O
   164    164      2  -0.945000   0.000000  16.478797  13.732331 # O
   165    165      2  -0.945000   5.492932   2.746466   5.492932 # O
   166    166      2  -0.945000   5.492932   0.000000   5.492932 # O
   167    167      2  -0.945000   0.000000   8.239399   0.000000 # O
   168    168      2  -0.945000  19.225264  19.225264   2.746466 # O
   169    169      2  -0.945000   2.746466   8.239399  13.732331 # O
   170    170      2  -0.945000  13.732331  10.985865   2.746466 # O
   171    171      2  -0.945000  10.985865   2.746466   0.000000 # O
   172    172      2  -0.945000  16.478797   0.000000  19.225264 # O
   173    173      2  -0.945000  16.478797   8.239399  19.225264 # O
   174    174      2  -0.945000  19.225264   2.746466   2.746466 # O
   175    175      2  -0.945000  19.225264   5.492932   5.492932 # O
   176    176      2  -0.945000  13.732331  13.732331   8.239399 # O
   177    177      2  -0.945000   8.239399  19.225264   8.239399 # O
   178    178      2  -0.945000  10.985865   0.000000  13.732331 # O
   179    179      2  -0.945000   0.000000   8.239399  19.225264 # O
   180    180      2  -0.945000   8.239399   2.746466  19.225264 # O
   181    181      2  -0.945000   5.492932   0.000000   2.746466 # O
   182    182      2  -0.945000  10.985865  10.985865  10.985865 # O
   183    183      2  -0.945000  19.225264  13.732331   0.000000 # O
   184    184      2  -0.945000  19.225264   0.000000  19.225264 # O
   185    185      2  -0.945000   0.000000   0.000000   8.239399 # O
   186    186      2  -0.945000   8.239399   5.492932   2.746466 # O
   187    187      2  -0.945000  16.478797  10.985865   5.492932 # O
   188    188      2  -0.945000  13.732331  16.478797  19.225264 # O
   189    189      2  -0.945000  16.478797  16.478797   8.239399 # O
   190    190      2  -0.945000   8.239399   5.492932   0.000000 # O
   191    191      2  -0.945000   5.492932   5.492932  10.985865 # O
   192    192      2  -0.945000  16.478797  16.478797  13.732331 # O
   193    193      2  -0.945000  13.732331   8.239399   5.492932 # O
   194    194      2  -0.945000   5.492932  13.732331   5.492932 # O
   195    195      2  -0.945000  13.732331  19.225264  19.225264 # O
   196    196      2  -0.945000  19.225264  16.478797   8.239399 # O
   197    197      2  -0.945000  13.732331   5.492932  10.985865 # O
   198    198      2  -0.945000  10.985865   8.239399  19.225264 # O
   199    199      2  -0.945000  19.225264  13.732331  19.225264 # O
   200    200      2  -0.945000  13.732331   0.000000  10.985865 # O
   201    201      2  -0.945000  16.478797  16.478797   0.000000 # O
   202    202      2  -0.945000  13.732331   8.239399  10.985865 # O
   203    203      2  -0.945000   2.746466  13.732331  19.225264 # O
   204    204      2  -0.945000  19.225264  19.225264   5.492932 # O
   205    205      2  -0.945000  13.732331   5.492932  16.478797 # O
   206    206      2  -0.945000   2.746466  16.478797  19.225264 # O
   207    207      2  -0.945000  16.478797  13.732331  10.985865 # O
   208    208      2  -0.945000   2.746466  19.225264  16.478797 # O
   209    209      2  -0.945000  19.225264  13.732331  16.478797 # O
   210    210      2  -0.945000   0.000000   5.492932   5.492932 # O
   211    211      2  -0.945000   5.492932   8.239399   0.000000 # O
   212    212      2  -0.945000  16.478797   8.239399  16.478797 # O
   213    213      2  -0.945000  13.732331  16.478797  13.732331 # O
   214    214      2  -0.945000  16.478797  19.225264   8.239399 # O
   215    215      2  -0.945000  10.985865   2.746466   2.746466 # O
   216    216      2  -0.945000   0.000000  19.225264   8.239399 # O
   217    217      2  -0.945000   2.746466  10.985865   5.492932 # O
   218    218      2  -0.945000  16.478797   8.239399  10.985865 # O
   219    219      2  -0.945000  13.732331  10.985865  19.225264 # O
   220    220      2  -0.945000   8.239399   8.239399  10.985865 # O
   221    221      2  -0.945000  19.225264   8.239399  16.478797 # O
   222    222      2  -0.945000   8.239399   5.492932  13.732331 # O
   223    223      2  -0.945000   8.239399   0.000000  13.732331 # O
   224    224      2  -0.945000   0.000000  19.225264  10.985865 # O
   225    225      2  -0.945000   2.746466   5.492932  13.732331 # O
   226    226      2  -0.945000  16.478797   5.492932   0.000000 # O
   227    227      2  -0.945000   8.239399   0.000000  10.985865 # O
   228    228      2  -0.945000  16.478797   2.746466  10.985865 # O
   229    229      2  -0.945000  10.985865   0.000000   2.746466 # O
   230    230      2  -0.945000   0.000000   0.000000   0.000000 # O
   231    231      2  -0.945000  10.985865  10.985865  16.478797 # O
   232    232      2  -0.945000  16.478797  10.985865   2.746466 # O
   233    233      2  -0.945000  10.985865  10.985865  13.732331 # O
   234    234      2  -0.945000  13.732331   2.746466  19.225264 # O
   235    235      2  -0.945000   0.000000  19.225264   0.000000 # O
   236    236      2  -0.945000  16.478797   5.492932   2.746466 # O
   237    237      2  -0.945000   5.492932   5.492932   8.239399 # O
   238    238      2  -0.945000  13.732331   8.239399  13.732331 # O
   239    239      2  -0.945000   5.492932  16.478797  16.478797 # O
   240    240      2  -0.945000  13.732331   0.000000   5.492932 # O
   241    241      2  -0.945000  16.478797   0.000000   2.746466 # O
   242    242      2  -0.945000   8.239399   5.492932  16.478797 # O
   243    243      2  -0.945000  19.225264   0.000000  16.478797 # O
   244    244      2  -0.945000  19.225264   8.239399  19.225264 # O
   245    245      2  -0.945000  10.985865  10.985865   8.239399 # O
   246    246      2  -0.945000  19.225264  10.985865   2.746466 # O
   247    247      2  -0.945000   5.492932   2.746466  19.225264 # O
   248    248      2  -0.945000   2.746466   5.492932   2.746466 # O
   249    249      2  -0.945000  13.732331  13.732331  13.732331 # O
   250    250      2  -0.945000  13.732331  19.225264  13.732331 # O
   251    251      2  -0.945000   2.746466   0.000000   0.000000 # O
   252    252      2  -0.945000  13.732331  10.985865   8.239399 # O
   253    253      2  -0.945000   2.746466  13.732331  13.732331 # O
   254    254      2  -0.945000   5.492932   5.492932   5.492932 # O
   255    255      2  -0.945000  19.225264  19.225264  16.478797 # O
   256    256      2  -0.945000  13.732331  16.478797   0.000000 # O
   257    257      2  -0.945000  13.732331  16.478797  16.478797 # O
   258    258      2  -0.945000  16.478797  13.732331  16.478797 # O
   259    259      2  -0.945000  19.225264   0.000000  10.985865 # O
   260    260      2  -0.945000  10.985865   5.492932   0.000000 # O
   261    261      2  -0.945000   2.746466  10.985865  10.985865 # O
   262    262      2  -0.945000   0.000000   2.746466   2.746466 # O
   263    263      2  -0.945000   0.000000   0.000000  19.225264 # O
   264    264      2  -0.945000   8.239399   2.746466   5.492932 # O
   265    265      2  -0.945000  19.225264  19.225264   0.000000 # O
   266    266      2  -0.945000   0.000000   8.239399  10.985865 # O
   267    267      2  -0.945000  13.732331   5.492932   2.746466 # O
   268    268      2  -0.945000  13.732331  16.478797   5.492932 # O
   269    269      2  -0.945000  10.985865   8.239399  13.732331 # O
   270    270      2  -0.945000   8.239399  19.225264   2.746466 # O
   271    271      2  -0.945000  19.225264  16.478797   5.492932 # O
   272    272      2  -0.945000  10.985865  13.732331  16.478797 # O
   273    273      2  -0.945000   2.746466  16.478797  16.478797 # O
   274    274      2  -0.945000   5.492932   5.492932   0.000000 # O
   275    275      2  -0.945000   2.746466  13.732331   5.492932 # O
   276    276      2  -0.945000  10.985865   8.239399   2.746466 # O
   277    277      2  -0.945000   2.746466  19.225264   0.000000 # O
   278    278      2  -0.945000   8.239399  10.985865  19.225264 # O
   279    279      2  -0.945000  10.985865  13.732331   0.000000 # O
   280    280      2  -0.945000   2.746466   2.746466   0.000000 # O
   281    281      2  -0.945000   0.000000  10.985865  10.985865 # O
   282    282      2  -0.945000   0.000000  19.225264   5.492932 # O
   283    283      2  -0.945000  10.985865  19.225264   5.492932 # O
   284    284      2  -0.945000  10.985865   0.000000   5.492932 # O
   285    285      2  -0.945000  10.985865  19.225264  13.732331 # O
   286    286      2  -0.945000   2.746466   2.746466  10.985865 # O
   287    287      2  -0.945000   5.492932   8.239399   5.492932 # O
   288    288      2  -0.945000  13.732331   8.239399  16.478797 # O
   289    289      2  -0.945000  19.225264   2.746466   5.492932 # O
   290    290      2  -0.945000   8.239399   5.492932   8.239399 # O
   291    291      2  -0.945000   0.000000  10.985865  16.478797 # O
   292    292      2  -0.945000  19.225264   0.000000   8.239399 # O
   293    293      2  -0.945000  16.478797   2.746466   2.746466 # O
   294    294      2  -0.945000   8.239399  16.478797   2.746466 # O
   295    295      2  -0.945000  19.225264   5.492932  19.225264 # O
   296    296      2  -0.945000   8.239399   8.239399   0.000000 # O
   297    297      2  -0.945000  19.225264   2.746466  13.732331 # O
   298    298      2  -0.945000   0.000000  16.478797   8.239399 # O
   299    299      2  -0.945000   2.746466   5.492932   8.239399 # O
   300    300      2  -0.945000  19.225264  16.478797  19.225264 # O
   301    301      2  -0.945000   2.746466   8.239399   2.746466 # O
   302    302      2  -0.945000  16.478797  13.732331   2.746466 # O
   303    303      2  -0.945000  13.732331  10.985865   5.492932 # O
   304    304      2  -0.945000  13.732331  16.478797   2.746466 # O
   305    305      2  -0.945000  19.225264  16.478797  16.478797 # O
   306    306      2  -0.945000  13.732331  19.225264  16.478797 # O
   307    307      2  -0.945000   0.000000  19.225264   2.746466 # O
   308    308      2  -0.945000  16.478797   0.000000   0.000000 # O
   309    309      2  -0.945000  19.225264   5.492932  10.985865 # O
   310    310      2  -0.945000   0.000000  16.478797   2.746466 # O
   311    311      2  -0.945000  19.225264   0.000000   5.492932 # O
   312    312      2  -0.945000  13.732331   2.746466   8.239399 # O
   313    313      2  -0.945000   2.746466  19.225264  19.225264 # O
   314    314      2  -0.945000  13.732331   2.746466  13.732331 # O
   315    315      2  -0.945000   8.239399   0.000000  16.478797 # O
   316    316      2  -0.945000   0.000000  10.985865  19.225264 # O
   317    317      2  -0.945000  13.732331   0.000000   0.000000 # O
   318    318      2  -0.945000   8.239399  16.478797  19.225264 # O
   319    319      2  -0.945000   8.239399  16.478797  16.478797 # O
   320    320      2  -0.945000   2.746466  19.225264   5.492932 # O
   321    321      2  -0.945000  19.225264   2.746466  19.225264 # O
   322    322      2  -0.945000   5.492932  10.985865   5.492932 # O
   323    323      2  -0.945000   8.239399   2.746466   0.000000 # O
   324    324      2  -0.945000   0.000000  16.478797  19.225264 # O
   325    325      2  -0.945000  19.225264  16.478797   2.746466 # O
   326    326      2  -0.945000   0.000000   2.746466  16.478797 # O
   327    327      2  -0.945000  19.225264   8.239399   5.492932 # O
   328    328      2  -0.945000   2.746466  10.985865   0.000000 # O
   329    329      2  -0.945000   5.492932  16.478797   2.746466 # O
   330    330      2  -0.945000   2.746466  19.225264   8.239399 # O
   331    331      2  -0.945000  16.478797  19.225264  19.225264 # O
   332    332      2  -0.945000  16.478797   2.746466   0.000000 # O
   333    333      2  -0.945000  19.225264  10.985865   0.000000 # O
   334    334      2  -0.945000  19.225264  10.985865   5.492932 # O
   335    335      2  -0.945000   8.239399   8.239399  16.478797 # O
   336    336      2  -0.945000   0.000000   0.000000  10.985865 # O
   337    337      2  -0.945000  13.732331   5.492932  13.732331 # O
   338    338      2  -0.945000   0.000000  16.478797   0.000000 # O
   339    339      2  -0.945000   8.239399   2.746466  13.732331 # O
   340    340      2  -0.945000   5.492932   5.492932   2.746466 # O
   341    341      2  -0.945000  19.225264  10.985865  16.478797 # O
   342    342      2  -0.945000   0.000000   5.492932   0.000000 # O
   343    343      2  -0.945000   5.492932   2.746466  13.732331 # O
   344    344      2  -0.945000   5.492932  13.732331  13.732331 # O
   345    345      2  -0.945000  16.478797  16.478797   2.746466 # O
   346    346      2  -0.945000   2.746466   2.746466   5.492932 # O
   347    347      2  -0.945000   0.000000  13.732331  16.478797 # O
   348    348      2  -0.945000   2.746466  19.225264   2.746466 # O
   349    349      2  -0.945000  16.478797  10.985865   8.239399 # O
   350    350      2  -0.945000  13.732331  19.225264   2.746466 # O
   351    351      2  -0.945000   5.492932   0.000000   0.000000 # O
   352    352      2  -0.945000  13.732331  13.732331  10.985865 # O
   353    353      2  -0.945000  13.732331  13.732331   5.492932 # O
   354    354      2  -0.945000   8.239399   0.000000   5.492932 # O
   355    355      2  -0.945000   2.746466   0.000000   5.492932 # O
   356    356      2  -0.945000   2.746466  16.478797  10.985865 # O
   357    357      2  -0.945000   8.239399   0.000000   2.746466 # O
   358    358      2  -0.945000  19.225264  10.985865  10.985865 # O
   359    359      2  -0.945000  13.732331   5.492932   8.239399 # O
   360    360      2  -0.945000  19.225264   2.746466   0.000000 # O
   361    361      2  -0.945000   8.239399  10.985865  13.732331 # O
   362    362      2  -0.945000  10.985865   2.746466  13.732331 # O
   363    363      2  -0.945000   5.492932   5.492932  16.478797 # O
   364    364      2  -0.945000   0.000000  19.225264  13.732331 # O
   365    365      2  -0.945000   5.492932  16.478797  19.225264 # O
   366    366      2  -0.945000  13.732331  10.985865  16.478797 # O
   367    367      2  -0.945000  16.478797   0.000000  16.478797 # O
   368    368      2  -0.945000  10.985865  16.478797   5.492932 # O
   369    369      2  -0.945000  16.478797   2.746466   8.239399 # O
   370    370      2  -0.945000  16.478797   0.000000  13.732331 # O
   371    371      2  -0.945000  19.225264   8.239399  10.985865 # O
   372    372      2  -0.945000   5.492932  19.225264   8.239399 # O
   373    373      2  -0.945000   2.746466   8.239399   8.239399 # O
   374    374      2  -0.945000  16.478797   2.746466  19.225264 # O
   375    375      2  -0.945000  10.985865  10.985865   2.746466 # O
   376    376      2  -0.945000  10.985865  13.732331   2.746466 # O
   377    377      2  -0.945000  10.985865   5.492932  19.225264 # O
   378    378      2  -0.945000  13.732331   0.000000   2.746466 # O
   379    379      2  -0.945000   5.492932  13.732331   0.000000 # O
   380    380      2  -0.945000  13.732331  19.225264   8.239399 # O
   381    381      2  -0.945000   5.492932  19.225264  19.225264 # O
   382    382      2  -0.945000  10.985865  16.478797  10.985865 # O
   383    383      2  -0.945000   5.492932   2.746466   2.746466 # O
   384    384      2  -0.945000  13.732331  13.732331   0.000000 # O
   385    385      2  -0.945000   5.492932   2.746466   8.239399 # O
   386    386      2  -0.945000  19.225264  19.225264  13.732331 # O
   387    387      2  -0.945000  13.732331   0.000000   8.239399 # O
   388    388      2  -0.945000   5.492932   8.239399  10.985865 # O
   389    389      2  -0.945000  19.225264  19.225264   8.239399 # O
   390    390      2  -0.945000  19.225264  13.732331  13.732331 # O
   391    391      2  -0.945000  16.478797   8.239399   2.746466 # O
   392    392      2  -0.945000   2.746466   2.746466   2.746466 # O
   393    393      2  -0.945000  10.985865   0.000000  19.225264 # O
   394    394      2  -0.945000  19.225264   5.492932   2.746466 # O
   395    395      2  -0.945000   5.492932  10.985865   2.746466 # O
   396    396      2  -0.945000   2.746466   5.492932  19.225264 # O
   397    397      2  -0.945000   8.239399  19.225264   0.000000 # O
   398    398      2  -0.945000  13.732331   2.746466   0.000000 # O
   399    399      2  -0.945000  13.732331   5.492932  19.225264 # O
   400    400      2  -0.945000   5.492932  13.732331   8.239399 # O

PairIJ Coeffs

  1   1         0.000000     1.000000         0.000000 # Fe3+-Fe3+
  1   2    184951.816372     0.190000         0.000000 # Fe3+-O
  2   2    208070.476335     0.265000      1962.270404 # O-O
