molecular system: 
5 atoms
0 bonds
0 angles
0 dihedrals
0 impropers
2 atom types
0 bond types
0 angle types
0 dihedral types
0 improper types

0.0 4.390878750594635 xlo xhi
0.0 4.390878750594635 ylo yhi
0.0 4.390878750594635 zlo zhi

Masses

     1  26.981539 # Al   Al   
     2  15.999400 # O    O    

Atoms

     1      1      1   1.417500   0.000000   2.195439   2.195439 # Al
     2      2      1   1.417500   0.000000   0.000000   0.000000 # Al
     3      3      2  -0.945000   2.195439   2.195439   0.000000 # O
     4      4      2  -0.945000   2.195439   0.000000   0.000000 # O
     5      5      2  -0.945000   2.195439   2.195439   2.195439 # O

PairIJ Coeffs

  1   1         0.000000     1.000000         0.000000 # Al-Al
  1   2    658111.586689     0.172000       797.382995 # Al-O
  2   2    208070.476335     0.265000      1962.270404 # O-O
