molecular system: 
2500 atoms
0 bonds
0 angles
0 dihedrals
0 impropers
2 atom types
0 bond types
0 angle types
0 dihedral types
0 improper types

0.0 34.850427738793684 xlo xhi
0.0 34.850427738793684 ylo yhi
0.0 34.850427738793684 zlo zhi

Masses

     1  26.981539 # Al   Al   
     2  15.999400 # O    O    

Atoms

     1      1      1   1.417500   2.489316  14.935898   4.978633 # Al
     2      2      1   1.417500   7.467949   9.957265  32.361111 # Al
     3      3      1   1.417500  29.871795   2.489316  29.871795 # Al
     4      4      1   1.417500   0.000000  24.893163  12.446581 # Al
     5      5      1   1.417500  17.425214  22.403846  19.914530 # Al
     6      6      1   1.417500  19.914530  17.425214  19.914530 # Al
     7      7      1   1.417500  12.446581  32.361111  19.914530 # Al
     8      8      1   1.417500  12.446581  29.871795  14.935898 # Al
     9      9      1   1.417500  22.403846  12.446581  17.425214 # Al
    10     10      1   1.417500  17.425214   7.467949  29.871795 # Al
    11     11      1   1.417500  29.871795  24.893163   9.957265 # Al
    12     12      1   1.417500  24.893163  24.893163   4.978633 # Al
    13     13      1   1.417500  29.871795  19.914530   0.000000 # Al
    14     14      1   1.417500  22.403846  17.425214  19.914530 # Al
    15     15      1   1.417500   7.467949  27.382479  32.361111 # Al
    16     16      1   1.417500   2.489316  17.425214  12.446581 # Al
    17     17      1   1.417500  22.403846   0.000000   4.978633 # Al
    18     18      1   1.417500   4.978633   2.489316   0.000000 # Al
    19     19      1   1.417500  24.893163   0.000000   0.000000 # Al
    20     20      1   1.417500  27.382479   7.467949   4.978633 # Al
    21     21      1   1.417500   7.467949  12.446581  27.382479 # Al
    22     22      1   1.417500  24.893163  19.914530  29.871795 # Al
    23     23      1   1.417500  12.446581   9.957265   7.467949 # Al
    24     24      1   1.417500  22.403846   2.489316  27.382479 # Al
    25     25      1   1.417500  32.361111  14.935898  27.382479 # Al
    26     26      1   1.417500   9.957265  24.893163  12.446581 # Al
    27     27      1   1.417500  22.403846   7.467949  12.446581 # Al
    28     28      1   1.417500   0.000000   2.489316   7.467949 # Al
    29     29      1   1.417500   9.957265  14.935898  24.893163 # Al
    30     30      1   1.417500  24.893163  17.425214  27.382479 # Al
    31     31      1   1.417500   7.467949  32.361111   7.467949 # Al
    32     32      1   1.417500  27.382479   0.000000  14.935898 # Al
    33     33      1   1.417500  22.403846   9.957265   9.957265 # Al
    34     34      1   1.417500  12.446581   7.467949  19.914530 # Al
    35     35      1   1.417500  17.425214  14.935898  22.403846 # Al
    36     36      1   1.417500   4.978633  32.361111  22.403846 # Al
    37     37      1   1.417500   2.489316  22.403846  29.871795 # Al
    38     38      1   1.417500  14.935898  27.382479  19.914530 # Al
    39     39      1   1.417500   2.489316   4.978633   7.467949 # Al
    40     40      1   1.417500  14.935898  24.893163  19.914530 # Al
    41     41      1   1.417500  32.361111   7.467949  27.382479 # Al
    42     42      1   1.417500   4.978633  12.446581  27.382479 # Al
    43     43      1   1.417500  19.914530  14.935898   7.467949 # Al
    44     44      1   1.417500  29.871795  19.914530  14.935898 # Al
    45     45      1   1.417500   7.467949  22.403846  17.425214 # Al
    46     46      1   1.417500   4.978633  14.935898  32.361111 # Al
    47     47      1   1.417500   0.000000  27.382479  22.403846 # Al
    48     48      1   1.417500  32.361111  22.403846  12.446581 # Al
    49     49      1   1.417500  32.361111  19.914530   0.000000 # Al
    50     50      1   1.417500   2.489316   4.978633  29.871795 # Al
    51     51      1   1.417500  29.871795   9.957265  29.871795 # Al
    52     52      1   1.417500  14.935898  19.914530   9.957265 # Al
    53     53      1   1.417500   7.467949  24.893163  22.403846 # Al
    54     54      1   1.417500  19.914530  14.935898   4.978633 # Al
    55     55      1   1.417500  14.935898   4.978633   0.000000 # Al
    56     56      1   1.417500   9.957265  27.382479  27.382479 # Al
    57     57      1   1.417500   9.957265  22.403846  19.914530 # Al
    58     58      1   1.417500  22.403846  29.871795   2.489316 # Al
    59     59      1   1.417500   4.978633   4.978633  24.893163 # Al
    60     60      1   1.417500  12.446581   7.467949  14.935898 # Al
    61     61      1   1.417500  29.871795   7.467949  12.446581 # Al
    62     62      1   1.417500   9.957265  32.361111  14.935898 # Al
    63     63      1   1.417500   4.978633  22.403846  12.446581 # Al
    64     64      1   1.417500   4.978633  24.893163  19.914530 # Al
    65     65      1   1.417500   9.957265  22.403846  24.893163 # Al
    66     66      1   1.417500   2.489316  12.446581  17.425214 # Al
    67     67      1   1.417500   4.978633  12.446581   2.489316 # Al
    68     68      1   1.417500  12.446581  14.935898  29.871795 # Al
    69     69      1   1.417500   2.489316  27.382479  12.446581 # Al
    70     70      1   1.417500  24.893163  29.871795  14.935898 # Al
    71     71      1   1.417500  32.361111  17.425214  22.403846 # Al
    72     72      1   1.417500  12.446581  27.382479   0.000000 # Al
    73     73      1   1.417500  19.914530  32.361111  27.382479 # Al
    74     74      1   1.417500   2.489316  29.871795  32.361111 # Al
    75     75      1   1.417500   0.000000   9.957265   4.978633 # Al
    76     76      1   1.417500   9.957265  24.893163   4.978633 # Al
    77     77      1   1.417500   2.489316  32.361111  27.382479 # Al
    78     78      1   1.417500   7.467949   7.467949  27.382479 # Al
    79     79      1   1.417500  19.914530  32.361111  29.871795 # Al
    80     80      1   1.417500  29.871795  24.893163   2.489316 # Al
    81     81      1   1.417500  19.914530  19.914530  14.935898 # Al
    82     82      1   1.417500  19.914530   7.467949  32.361111 # Al
    83     83      1   1.417500  27.382479   9.957265  12.446581 # Al
    84     84      1   1.417500  32.361111  22.403846   0.000000 # Al
    85     85      1   1.417500  14.935898   0.000000  27.382479 # Al
    86     86      1   1.417500  29.871795  27.382479  19.914530 # Al
    87     87      1   1.417500   4.978633  19.914530  22.403846 # Al
    88     88      1   1.417500   9.957265  14.935898  19.914530 # Al
    89     89      1   1.417500  32.361111  14.935898  14.935898 # Al
    90     90      1   1.417500   0.000000   2.489316   9.957265 # Al
    91     91      1   1.417500   9.957265   7.467949  27.382479 # Al
    92     92      1   1.417500  32.361111  24.893163  12.446581 # Al
    93     93      1   1.417500  22.403846  27.382479  14.935898 # Al
    94     94      1   1.417500  27.382479  32.361111   9.957265 # Al
    95     95      1   1.417500  24.893163   4.978633  24.893163 # Al
    96     96      1   1.417500   9.957265  14.935898  12.446581 # Al
    97     97      1   1.417500  27.382479   7.467949  17.425214 # Al
    98     98      1   1.417500  19.914530  22.403846   2.489316 # Al
    99     99      1   1.417500  19.914530   0.000000  29.871795 # Al
   100    100      1   1.417500  22.403846  14.935898  12.446581 # Al
   101    101      1   1.417500  12.446581  19.914530   0.000000 # Al
   102    102      1   1.417500   2.489316   7.467949  24.893163 # Al
   103    103      1   1.417500   9.957265  14.935898  14.935898 # Al
   104    104      1   1.417500   0.000000  29.871795  22.403846 # Al
   105    105      1   1.417500  17.425214  22.403846  22.403846 # Al
   106    106      1   1.417500  12.446581  17.425214   7.467949 # Al
   107    107      1   1.417500   7.467949  27.382479  29.871795 # Al
   108    108      1   1.417500  24.893163  12.446581   9.957265 # Al
   109    109      1   1.417500  24.893163  14.935898   4.978633 # Al
   110    110      1   1.417500  27.382479   2.489316   7.467949 # Al
   111    111      1   1.417500  17.425214  24.893163  29.871795 # Al
   112    112      1   1.417500   7.467949  12.446581  24.893163 # Al
   113    113      1   1.417500  32.361111   0.000000   7.467949 # Al
   114    114      1   1.417500  12.446581  27.382479  17.425214 # Al
   115    115      1   1.417500  32.361111  24.893163  19.914530 # Al
   116    116      1   1.417500   7.467949  24.893163  12.446581 # Al
   117    117      1   1.417500  29.871795  19.914530   2.489316 # Al
   118    118      1   1.417500  24.893163  27.382479  12.446581 # Al
   119    119      1   1.417500   7.467949  19.914530   7.467949 # Al
   120    120      1   1.417500  19.914530  22.403846  24.893163 # Al
   121    121      1   1.417500  22.403846  32.361111  29.871795 # Al
   122    122      1   1.417500  12.446581   0.000000  14.935898 # Al
   123    123      1   1.417500   7.467949  27.382479  19.914530 # Al
   124    124      1   1.417500  19.914530   7.467949   4.978633 # Al
   125    125      1   1.417500   9.957265   2.489316  19.914530 # Al
   126    126      1   1.417500  24.893163  24.893163  17.425214 # Al
   127    127      1   1.417500  14.935898  24.893163  12.446581 # Al
   128    128      1   1.417500   4.978633  32.361111  12.446581 # Al
   129    129      1   1.417500  29.871795  17.425214  27.382479 # Al
   130    130      1   1.417500  17.425214  12.446581  17.425214 # Al
   131    131      1   1.417500   9.957265   7.467949  14.935898 # Al
   132    132      1   1.417500   7.467949  22.403846  19.914530 # Al
   133    133      1   1.417500  29.871795  19.914530  17.425214 # Al
   134    134      1   1.417500  14.935898  12.446581  17.425214 # Al
   135    135      1   1.417500  12.446581  32.361111  14.935898 # Al
   136    136      1   1.417500   2.489316  14.935898  22.403846 # Al
   137    137      1   1.417500  27.382479  22.403846  32.361111 # Al
   138    138      1   1.417500  19.914530  19.914530  29.871795 # Al
   139    139      1   1.417500   0.000000  32.361111  17.425214 # Al
   140    140      1   1.417500   4.978633  19.914530   0.000000 # Al
   141    141      1   1.417500   4.978633  27.382479  22.403846 # Al
   142    142      1   1.417500  14.935898  14.935898  24.893163 # Al
   143    143      1   1.417500  14.935898  19.914530  22.403846 # Al
   144    144      1   1.417500  29.871795   7.467949  14.935898 # Al
   145    145      1   1.417500  12.446581   9.957265  22.403846 # Al
   146    146      1   1.417500  19.914530  14.935898  24.893163 # Al
   147    147      1   1.417500  27.382479  22.403846  19.914530 # Al
   148    148      1   1.417500  32.361111   7.467949   7.467949 # Al
   149    149      1   1.417500  27.382479  17.425214  27.382479 # Al
   150    150      1   1.417500  22.403846   2.489316   0.000000 # Al
   151    151      1   1.417500  32.361111  17.425214  24.893163 # Al
   152    152      1   1.417500   2.489316  24.893163   7.467949 # Al
   153    153      1   1.417500   2.489316  29.871795  22.403846 # Al
   154    154      1   1.417500   2.489316  27.382479  27.382479 # Al
   155    155      1   1.417500   4.978633   7.467949  12.446581 # Al
   156    156      1   1.417500  17.425214  12.446581   9.957265 # Al
   157    157      1   1.417500   2.489316  27.382479  19.914530 # Al
   158    158      1   1.417500   7.467949  17.425214  22.403846 # Al
   159    159      1   1.417500  27.382479  14.935898  19.914530 # Al
   160    160      1   1.417500   4.978633   4.978633  29.871795 # Al
   161    161      1   1.417500   4.978633   7.467949  32.361111 # Al
   162    162      1   1.417500  22.403846   2.489316   4.978633 # Al
   163    163      1   1.417500  24.893163   2.489316  17.425214 # Al
   164    164      1   1.417500  12.446581   7.467949  29.871795 # Al
   165    165      1   1.417500   7.467949  24.893163  17.425214 # Al
   166    166      1   1.417500  12.446581   9.957265  14.935898 # Al
   167    167      1   1.417500  29.871795   2.489316   9.957265 # Al
   168    168      1   1.417500   7.467949  29.871795   4.978633 # Al
   169    169      1   1.417500   2.489316   2.489316   0.000000 # Al
   170    170      1   1.417500  19.914530  19.914530   0.000000 # Al
   171    171      1   1.417500   4.978633  22.403846  24.893163 # Al
   172    172      1   1.417500   4.978633  32.361111   4.978633 # Al
   173    173      1   1.417500  19.914530   2.489316  14.935898 # Al
   174    174      1   1.417500  17.425214   4.978633   7.467949 # Al
   175    175      1   1.417500   0.000000  17.425214  32.361111 # Al
   176    176      1   1.417500   4.978633   7.467949  24.893163 # Al
   177    177      1   1.417500  14.935898  27.382479  27.382479 # Al
   178    178      1   1.417500  24.893163   4.978633  14.935898 # Al
   179    179      1   1.417500   9.957265   0.000000   9.957265 # Al
   180    180      1   1.417500  27.382479  29.871795  19.914530 # Al
   181    181      1   1.417500   0.000000   0.000000  27.382479 # Al
   182    182      1   1.417500   0.000000   9.957265  27.382479 # Al
   183    183      1   1.417500   7.467949  22.403846  12.446581 # Al
   184    184      1   1.417500  12.446581   7.467949  32.361111 # Al
   185    185      1   1.417500   2.489316  14.935898  19.914530 # Al
   186    186      1   1.417500  22.403846  29.871795   4.978633 # Al
   187    187      1   1.417500  14.935898  27.382479  12.446581 # Al
   188    188      1   1.417500  14.935898  12.446581  24.893163 # Al
   189    189      1   1.417500   7.467949  22.403846  32.361111 # Al
   190    190      1   1.417500  14.935898  19.914530  29.871795 # Al
   191    191      1   1.417500   2.489316   9.957265  12.446581 # Al
   192    192      1   1.417500  17.425214  19.914530  27.382479 # Al
   193    193      1   1.417500  32.361111  14.935898  32.361111 # Al
   194    194      1   1.417500  32.361111   4.978633  32.361111 # Al
   195    195      1   1.417500  19.914530  29.871795  14.935898 # Al
   196    196      1   1.417500  17.425214   7.467949   2.489316 # Al
   197    197      1   1.417500   4.978633   2.489316  14.935898 # Al
   198    198      1   1.417500   0.000000   7.467949   2.489316 # Al
   199    199      1   1.417500  24.893163  17.425214  24.893163 # Al
   200    200      1   1.417500   2.489316   7.467949  14.935898 # Al
   201    201      1   1.417500  24.893163   2.489316  29.871795 # Al
   202    202      1   1.417500  32.361111  22.403846  19.914530 # Al
   203    203      1   1.417500  32.361111   0.000000  12.446581 # Al
   204    204      1   1.417500  22.403846  17.425214  12.446581 # Al
   205    205      1   1.417500   2.489316  24.893163  24.893163 # Al
   206    206      1   1.417500   7.467949  29.871795   9.957265 # Al
   207    207      1   1.417500  27.382479  32.361111   0.000000 # Al
   208    208      1   1.417500   0.000000  32.361111   9.957265 # Al
   209    209      1   1.417500  19.914530  19.914530   4.978633 # Al
   210    210      1   1.417500   2.489316   2.489316  22.403846 # Al
   211    211      1   1.417500  14.935898  14.935898   7.467949 # Al
   212    212      1   1.417500  17.425214  12.446581  24.893163 # Al
   213    213      1   1.417500  19.914530  32.361111  24.893163 # Al
   214    214      1   1.417500   0.000000  14.935898  27.382479 # Al
   215    215      1   1.417500   7.467949   9.957265  14.935898 # Al
   216    216      1   1.417500  14.935898  22.403846  32.361111 # Al
   217    217      1   1.417500   2.489316   0.000000   7.467949 # Al
   218    218      1   1.417500  17.425214  24.893163   9.957265 # Al
   219    219      1   1.417500  14.935898  24.893163  27.382479 # Al
   220    220      1   1.417500   7.467949  29.871795   2.489316 # Al
   221    221      1   1.417500   7.467949  24.893163   0.000000 # Al
   222    222      1   1.417500   7.467949  32.361111  32.361111 # Al
   223    223      1   1.417500  22.403846   4.978633  19.914530 # Al
   224    224      1   1.417500  27.382479  19.914530  14.935898 # Al
   225    225      1   1.417500   9.957265  32.361111  12.446581 # Al
   226    226      1   1.417500  12.446581   2.489316  19.914530 # Al
   227    227      1   1.417500  12.446581   9.957265  29.871795 # Al
   228    228      1   1.417500   2.489316  17.425214  27.382479 # Al
   229    229      1   1.417500  24.893163  22.403846   4.978633 # Al
   230    230      1   1.417500  12.446581   2.489316   7.467949 # Al
   231    231      1   1.417500  27.382479  14.935898   0.000000 # Al
   232    232      1   1.417500   4.978633  27.382479  32.361111 # Al
   233    233      1   1.417500   9.957265  17.425214  32.361111 # Al
   234    234      1   1.417500  14.935898   9.957265  17.425214 # Al
   235    235      1   1.417500  17.425214  24.893163  14.935898 # Al
   236    236      1   1.417500  27.382479  12.446581  27.382479 # Al
   237    237      1   1.417500  17.425214  22.403846  17.425214 # Al
   238    238      1   1.417500   4.978633   4.978633  14.935898 # Al
   239    239      1   1.417500  22.403846   4.978633  17.425214 # Al
   240    240      1   1.417500   2.489316  12.446581  19.914530 # Al
   241    241      1   1.417500  14.935898  24.893163  22.403846 # Al
   242    242      1   1.417500   2.489316  12.446581  24.893163 # Al
   243    243      1   1.417500   0.000000  14.935898  17.425214 # Al
   244    244      1   1.417500  24.893163   7.467949  24.893163 # Al
   245    245      1   1.417500  32.361111  24.893163  27.382479 # Al
   246    246      1   1.417500  22.403846  29.871795  22.403846 # Al
   247    247      1   1.417500  12.446581  17.425214  12.446581 # Al
   248    248      1   1.417500  14.935898  29.871795  29.871795 # Al
   249    249      1   1.417500   7.467949  19.914530   4.978633 # Al
   250    250      1   1.417500   4.978633   9.957265  29.871795 # Al
   251    251      1   1.417500  29.871795  17.425214  17.425214 # Al
   252    252      1   1.417500  17.425214  27.382479   4.978633 # Al
   253    253      1   1.417500   4.978633   9.957265   9.957265 # Al
   254    254      1   1.417500  12.446581   4.978633   2.489316 # Al
   255    255      1   1.417500  24.893163   2.489316  12.446581 # Al
   256    256      1   1.417500  19.914530  24.893163   7.467949 # Al
   257    257      1   1.417500  19.914530  12.446581  24.893163 # Al
   258    258      1   1.417500  32.361111   9.957265  24.893163 # Al
   259    259      1   1.417500  19.914530  17.425214  32.361111 # Al
   260    260      1   1.417500  24.893163   9.957265   7.467949 # Al
   261    261      1   1.417500  14.935898  14.935898   4.978633 # Al
   262    262      1   1.417500  24.893163  24.893163  19.914530 # Al
   263    263      1   1.417500  17.425214   9.957265  22.403846 # Al
   264    264      1   1.417500  24.893163  17.425214   7.467949 # Al
   265    265      1   1.417500  24.893163  12.446581   0.000000 # Al
   266    266      1   1.417500   4.978633  24.893163   4.978633 # Al
   267    267      1   1.417500   7.467949   7.467949   7.467949 # Al
   268    268      1   1.417500  27.382479  22.403846  14.935898 # Al
   269    269      1   1.417500  32.361111  27.382479  24.893163 # Al
   270    270      1   1.417500  29.871795   7.467949  32.361111 # Al
   271    271      1   1.417500   2.489316  29.871795  27.382479 # Al
   272    272      1   1.417500  29.871795  14.935898   2.489316 # Al
   273    273      1   1.417500  27.382479  17.425214  29.871795 # Al
   274    274      1   1.417500  24.893163   4.978633  19.914530 # Al
   275    275      1   1.417500   7.467949  22.403846   7.467949 # Al
   276    276      1   1.417500  32.361111   7.467949  22.403846 # Al
   277    277      1   1.417500  22.403846  14.935898  32.361111 # Al
   278    278      1   1.417500  22.403846  19.914530   2.489316 # Al
   279    279      1   1.417500  27.382479  29.871795  22.403846 # Al
   280    280      1   1.417500  24.893163  19.914530  27.382479 # Al
   281    281      1   1.417500   9.957265  27.382479  12.446581 # Al
   282    282      1   1.417500  29.871795   0.000000   4.978633 # Al
   283    283      1   1.417500  12.446581   0.000000  19.914530 # Al
   284    284      1   1.417500   2.489316   7.467949  29.871795 # Al
   285    285      1   1.417500  12.446581  14.935898  32.361111 # Al
   286    286      1   1.417500   0.000000   7.467949  27.382479 # Al
   287    287      1   1.417500  32.361111  14.935898  22.403846 # Al
   288    288      1   1.417500   4.978633   4.978633   9.957265 # Al
   289    289      1   1.417500   7.467949   4.978633  24.893163 # Al
   290    290      1   1.417500  32.361111  29.871795   4.978633 # Al
   291    291      1   1.417500  32.361111   9.957265   0.000000 # Al
   292    292      1   1.417500  17.425214   0.000000  14.935898 # Al
   293    293      1   1.417500   9.957265  17.425214   4.978633 # Al
   294    294      1   1.417500  32.361111   4.978633  17.425214 # Al
   295    295      1   1.417500   9.957265   0.000000  12.446581 # Al
   296    296      1   1.417500   4.978633   2.489316  17.425214 # Al
   297    297      1   1.417500   7.467949   0.000000   2.489316 # Al
   298    298      1   1.417500   2.489316  29.871795  19.914530 # Al
   299    299      1   1.417500   9.957265  19.914530  22.403846 # Al
   300    300      1   1.417500  24.893163  32.361111   2.489316 # Al
   301    301      1   1.417500  17.425214  14.935898  24.893163 # Al
   302    302      1   1.417500  32.361111  29.871795  27.382479 # Al
   303    303      1   1.417500  17.425214  27.382479   2.489316 # Al
   304    304      1   1.417500  19.914530  22.403846   7.467949 # Al
   305    305      1   1.417500  29.871795   4.978633  24.893163 # Al
   306    306      1   1.417500  12.446581  14.935898  24.893163 # Al
   307    307      1   1.417500   9.957265   4.978633  17.425214 # Al
   308    308      1   1.417500   0.000000   7.467949  32.361111 # Al
   309    309      1   1.417500  27.382479   9.957265   0.000000 # Al
   310    310      1   1.417500   9.957265  22.403846   0.000000 # Al
   311    311      1   1.417500  27.382479  29.871795  32.361111 # Al
   312    312      1   1.417500  29.871795  29.871795  17.425214 # Al
   313    313      1   1.417500   2.489316  24.893163   9.957265 # Al
   314    314      1   1.417500  29.871795   0.000000  32.361111 # Al
   315    315      1   1.417500   7.467949  29.871795  27.382479 # Al
   316    316      1   1.417500   7.467949  12.446581  22.403846 # Al
   317    317      1   1.417500   4.978633   7.467949   4.978633 # Al
   318    318      1   1.417500   9.957265  14.935898   4.978633 # Al
   319    319      1   1.417500  24.893163   4.978633  32.361111 # Al
   320    320      1   1.417500   9.957265   4.978633  24.893163 # Al
   321    321      1   1.417500   2.489316  29.871795  24.893163 # Al
   322    322      1   1.417500  14.935898   7.467949  12.446581 # Al
   323    323      1   1.417500  17.425214   9.957265  12.446581 # Al
   324    324      1   1.417500  29.871795  19.914530  32.361111 # Al
   325    325      1   1.417500  27.382479   2.489316  17.425214 # Al
   326    326      1   1.417500  22.403846  27.382479  24.893163 # Al
   327    327      1   1.417500  14.935898  17.425214  32.361111 # Al
   328    328      1   1.417500   2.489316   4.978633   2.489316 # Al
   329    329      1   1.417500   0.000000   4.978633   9.957265 # Al
   330    330      1   1.417500  29.871795  24.893163  14.935898 # Al
   331    331      1   1.417500   2.489316  27.382479   9.957265 # Al
   332    332      1   1.417500   4.978633   7.467949   2.489316 # Al
   333    333      1   1.417500   0.000000  29.871795  27.382479 # Al
   334    334      1   1.417500  19.914530  22.403846  29.871795 # Al
   335    335      1   1.417500  22.403846  24.893163  19.914530 # Al
   336    336      1   1.417500  17.425214  19.914530  24.893163 # Al
   337    337      1   1.417500  17.425214   4.978633  14.935898 # Al
   338    338      1   1.417500  29.871795  22.403846  12.446581 # Al
   339    339      1   1.417500  32.361111   7.467949   4.978633 # Al
   340    340      1   1.417500   9.957265   4.978633   4.978633 # Al
   341    341      1   1.417500  17.425214  29.871795  29.871795 # Al
   342    342      1   1.417500   2.489316  27.382479   0.000000 # Al
   343    343      1   1.417500  19.914530   2.489316  17.425214 # Al
   344    344      1   1.417500  24.893163  29.871795  29.871795 # Al
   345    345      1   1.417500  24.893163  14.935898  27.382479 # Al
   346    346      1   1.417500   9.957265  17.425214  29.871795 # Al
   347    347      1   1.417500   2.489316   0.000000  32.361111 # Al
   348    348      1   1.417500  27.382479   4.978633   9.957265 # Al
   349    349      1   1.417500  22.403846   4.978633  22.403846 # Al
   350    350      1   1.417500   0.000000  14.935898   2.489316 # Al
   351    351      1   1.417500  27.382479   4.978633   2.489316 # Al
   352    352      1   1.417500   0.000000   2.489316  22.403846 # Al
   353    353      1   1.417500  32.361111  24.893163  32.361111 # Al
   354    354      1   1.417500  17.425214   2.489316  19.914530 # Al
   355    355      1   1.417500  29.871795   4.978633   4.978633 # Al
   356    356      1   1.417500  14.935898   0.000000   9.957265 # Al
   357    357      1   1.417500   9.957265  29.871795  32.361111 # Al
   358    358      1   1.417500   2.489316   9.957265  27.382479 # Al
   359    359      1   1.417500  27.382479   4.978633  27.382479 # Al
   360    360      1   1.417500   9.957265  32.361111  24.893163 # Al
   361    361      1   1.417500   2.489316   9.957265   9.957265 # Al
   362    362      1   1.417500  19.914530  19.914530  32.361111 # Al
   363    363      1   1.417500  14.935898  22.403846  22.403846 # Al
   364    364      1   1.417500  17.425214  14.935898   2.489316 # Al
   365    365      1   1.417500   4.978633   2.489316  32.361111 # Al
   366    366      1   1.417500   2.489316  14.935898  32.361111 # Al
   367    367      1   1.417500   9.957265   9.957265  19.914530 # Al
   368    368      1   1.417500  32.361111   9.957265  14.935898 # Al
   369    369      1   1.417500   2.489316   0.000000   2.489316 # Al
   370    370      1   1.417500  19.914530  22.403846   4.978633 # Al
   371    371      1   1.417500   9.957265  32.361111   0.000000 # Al
   372    372      1   1.417500  19.914530  32.361111   7.467949 # Al
   373    373      1   1.417500  32.361111   9.957265  32.361111 # Al
   374    374      1   1.417500  32.361111  12.446581  24.893163 # Al
   375    375      1   1.417500  22.403846  19.914530  29.871795 # Al
   376    376      1   1.417500  22.403846  24.893163  32.361111 # Al
   377    377      1   1.417500   4.978633  12.446581   4.978633 # Al
   378    378      1   1.417500   2.489316  17.425214   0.000000 # Al
   379    379      1   1.417500   4.978633  24.893163  22.403846 # Al
   380    380      1   1.417500  22.403846   2.489316   7.467949 # Al
   381    381      1   1.417500  22.403846  12.446581   2.489316 # Al
   382    382      1   1.417500   0.000000   2.489316   2.489316 # Al
   383    383      1   1.417500   4.978633  22.403846   4.978633 # Al
   384    384      1   1.417500   7.467949   4.978633  27.382479 # Al
   385    385      1   1.417500  19.914530  27.382479  12.446581 # Al
   386    386      1   1.417500  29.871795  12.446581  27.382479 # Al
   387    387      1   1.417500  17.425214  27.382479  29.871795 # Al
   388    388      1   1.417500   0.000000  14.935898   0.000000 # Al
   389    389      1   1.417500  27.382479  24.893163   0.000000 # Al
   390    390      1   1.417500  14.935898  12.446581   9.957265 # Al
   391    391      1   1.417500  22.403846  12.446581  14.935898 # Al
   392    392      1   1.417500  12.446581   0.000000  32.361111 # Al
   393    393      1   1.417500  32.361111  24.893163  29.871795 # Al
   394    394      1   1.417500   9.957265  24.893163   2.489316 # Al
   395    395      1   1.417500  22.403846  24.893163   2.489316 # Al
   396    396      1   1.417500  32.361111   4.978633  24.893163 # Al
   397    397      1   1.417500  14.935898  19.914530   7.467949 # Al
   398    398      1   1.417500   9.957265  12.446581   2.489316 # Al
   399    399      1   1.417500  27.382479  12.446581  14.935898 # Al
   400    400      1   1.417500   4.978633  17.425214  19.914530 # Al
   401    401      1   1.417500   7.467949  24.893163   4.978633 # Al
   402    402      1   1.417500  32.361111  29.871795   2.489316 # Al
   403    403      1   1.417500  14.935898   7.467949  29.871795 # Al
   404    404      1   1.417500  24.893163  19.914530  32.361111 # Al
   405    405      1   1.417500  24.893163  12.446581   4.978633 # Al
   406    406      1   1.417500  29.871795   7.467949   9.957265 # Al
   407    407      1   1.417500  14.935898   9.957265  32.361111 # Al
   408    408      1   1.417500  29.871795  19.914530  12.446581 # Al
   409    409      1   1.417500  19.914530  29.871795   9.957265 # Al
   410    410      1   1.417500  14.935898  27.382479   7.467949 # Al
   411    411      1   1.417500   0.000000   9.957265   7.467949 # Al
   412    412      1   1.417500   9.957265  32.361111  27.382479 # Al
   413    413      1   1.417500  22.403846  19.914530   9.957265 # Al
   414    414      1   1.417500  14.935898  12.446581  32.361111 # Al
   415    415      1   1.417500  14.935898  27.382479  29.871795 # Al
   416    416      1   1.417500  27.382479  27.382479  24.893163 # Al
   417    417      1   1.417500   4.978633  17.425214  17.425214 # Al
   418    418      1   1.417500  12.446581  17.425214  29.871795 # Al
   419    419      1   1.417500   4.978633  22.403846  29.871795 # Al
   420    420      1   1.417500   4.978633  27.382479  19.914530 # Al
   421    421      1   1.417500   0.000000   4.978633   2.489316 # Al
   422    422      1   1.417500   2.489316  19.914530   0.000000 # Al
   423    423      1   1.417500   2.489316  19.914530  32.361111 # Al
   424    424      1   1.417500  19.914530  17.425214   9.957265 # Al