#Generated by 
256 atoms
2 atom types

0.0 14.485050 xlo xhi
0.0 14.485050 ylo yhi
0.0 14.485050 zlo zhi

Atoms

1       2      0.000000000      0.000000000      0.000000000
2       1      0.000000000      0.000000000      3.621262550
3       1      0.000000000      0.000000000      7.242525101
4       1      0.000000000      0.000000000     10.863787651
5       1      0.000000000      3.621262550      0.000000000
6       1      0.000000000      3.621262550      3.621262550
7       1      0.000000000      3.621262550      7.242525101
8       1      0.000000000      3.621262550     10.863787651
9       1      0.000000000      7.242525101      0.000000000
10      1      0.000000000      7.242525101      3.621262550
11      1      0.000000000      7.242525101      7.242525101
12      1      0.000000000      7.242525101     10.863787651
13      1      0.000000000     10.863787651      0.000000000
14      1      0.000000000     10.863787651      3.621262550
15      1      0.000000000     10.863787651      7.242525101
16      1      0.000000000     10.863787651     10.863787651
17      1      3.621262550      0.000000000      0.000000000
18      1      3.621262550      0.000000000      3.621262550
19      1      3.621262550      0.000000000      7.242525101
20      1      3.621262550      0.000000000     10.863787651
21      1      3.621262550      3.621262550      0.000000000
22      1      3.621262550      3.621262550      3.621262550
23      1      3.621262550      3.621262550      7.242525101
24      1      3.621262550      3.621262550     10.863787651
25      1      3.621262550      7.242525101      0.000000000
26      1      3.621262550      7.242525101      3.621262550
27      1      3.621262550      7.242525101      7.242525101
28      1      3.621262550      7.242525101     10.863787651
29      1      3.621262550     10.863787651      0.000000000
30      1      3.621262550     10.863787651      3.621262550
31      1      3.621262550     10.863787651      7.242525101
32      1      3.621262550     10.863787651     10.863787651
33      1      7.242525101      0.000000000      0.000000000
34      1      7.242525101      0.000000000      3.621262550
35      1      7.242525101      0.000000000      7.242525101
36      1      7.242525101      0.000000000     10.863787651
37      1      7.242525101      3.621262550      0.000000000
38      1      7.242525101      3.621262550      3.621262550
39      1      7.242525101      3.621262550      7.242525101
40      1      7.242525101      3.621262550     10.863787651
41      1      7.242525101      7.242525101      0.000000000
42      1      7.242525101      7.242525101      3.621262550
43      1      7.242525101      7.242525101      7.242525101
44      1      7.242525101      7.242525101     10.863787651
45      1      7.242525101     10.863787651      0.000000000
46      1      7.242525101     10.863787651      3.621262550
47      1      7.242525101     10.863787651      7.242525101
48      1      7.242525101     10.863787651     10.863787651
49      1     10.863787651      0.000000000      0.000000000
50      1     10.863787651      0.000000000      3.621262550
51      1     10.863787651      0.000000000      7.242525101
52      1     10.863787651      0.000000000     10.863787651
53      1     10.863787651      3.621262550      0.000000000
54      1     10.863787651      3.621262550      3.621262550
55      1     10.863787651      3.621262550      7.242525101
56      1     10.863787651      3.621262550     10.863787651
57      1     10.863787651      7.242525101      0.000000000
58      1     10.863787651      7.242525101      3.621262550
59      1     10.863787651      7.242525101      7.242525101
60      1     10.863787651      7.242525101     10.863787651
61      1     10.863787651     10.863787651      0.000000000
62      1     10.863787651     10.863787651      3.621262550
63      1     10.863787651     10.863787651      7.242525101
64      1     10.863787651     10.863787651     10.863787651
65      1      0.000000000      1.810631275      1.810631275
66      1      0.000000000      1.810631275      5.431893826
67      1      0.000000000      1.810631275      9.053155899
68      1      0.000000000      1.810631275     12.674419403
69      1      0.000000000      5.431893826      1.810631275
70      1      0.000000000      5.431893826      5.431893826
71      1      0.000000000      5.431893826      9.053155899
72      1      0.000000000      5.431893826     12.674419403
73      1      0.000000000      9.053155899      1.810631275
74      1      0.000000000      9.053155899      5.431893826
75      1      0.000000000      9.053155899      9.053155899
76      1      0.000000000      9.053155899     12.674419403
77      1      0.000000000     12.674419403      1.810631275
78      1      0.000000000     12.674419403      5.431893826
79      1      0.000000000     12.674419403      9.053155899
80      1      0.000000000     12.674419403     12.674419403
81      1      3.621262550      1.810631275      1.810631275
82      1      3.621262550      1.810631275      5.431893826
83      1      3.621262550      1.810631275      9.053155899
84      1      3.621262550      1.810631275     12.674419403
85      1      3.621262550      5.431893826      1.810631275
86      1      3.621262550      5.431893826      5.431893826
87      1      3.621262550      5.431893826      9.053155899
88      1      3.621262550      5.431893826     12.674419403
89      1      3.621262550      9.053155899      1.810631275
90      1      3.621262550      9.053155899      5.431893826
91      1      3.621262550      9.053155899      9.053155899
92      1      3.621262550      9.053155899     12.674419403
93      1      3.621262550     12.674419403      1.810631275
94      1      3.621262550     12.674419403      5.431893826
95      1      3.621262550     12.674419403      9.053155899
96      1      3.621262550     12.674419403     12.674419403
97      1      7.242525101      1.810631275      1.810631275
98      1      7.242525101      1.810631275      5.431893826
99      1      7.242525101      1.810631275      9.053155899
100     1      7.242525101      1.810631275     12.674419403
101     1      7.242525101      5.431893826      1.810631275
102     1      7.242525101      5.431893826      5.431893826
103     1      7.242525101      5.431893826      9.053155899
104     1      7.242525101      5.431893826     12.674419403
105     1      7.242525101      9.053155899      1.810631275
106     1      7.242525101      9.053155899      5.431893826
107     1      7.242525101      9.053155899      9.053155899
108     1      7.242525101      9.053155899     12.674419403
109     1      7.242525101     12.674419403      1.810631275
110     1      7.242525101     12.674419403      5.431893826
111     1      7.242525101     12.674419403      9.053155899
112     1      7.242525101     12.674419403     12.674419403
113     1     10.863787651      1.810631275      1.810631275
114     1     10.863787651      1.810631275      5.431893826
115     1     10.863787651      1.810631275      9.053155899
116     1     10.863787651      1.810631275     12.674419403
117     1     10.863787651      5.431893826      1.810631275
118     1     10.863787651      5.431893826      5.431893826
119     1     10.863787651      5.431893826      9.053155899
120     1     10.863787651      5.431893826     12.674419403
121     1     10.863787651      9.053155899      1.810631275
122     1     10.863787651      9.053155899      5.431893826
123     1     10.863787651      9.053155899      9.053155899
124     1     10.863787651      9.053155899     12.674419403
125     1     10.863787651     12.674419403      1.810631275
126     1     10.863787651     12.674419403      5.431893826
127     1     10.863787651     12.674419403      9.053155899
128     1     10.863787651     12.674419403     12.674419403
129     1      1.810631275      0.000000000      1.810631275
130     1      1.810631275      0.000000000      5.431893826
131     1      1.810631275      0.000000000      9.053155899
132     1      1.810631275      0.000000000     12.674419403
133     1      1.810631275      3.621262550      1.810631275
134     1      1.810631275      3.621262550      5.431893826
135     1      1.810631275      3.621262550      9.053155899
136     1      1.810631275      3.621262550     12.674419403
137     1      1.810631275      7.242525101      1.810631275
138     1      1.810631275      7.242525101      5.431893826
139     1      1.810631275      7.242525101      9.053155899
140     1      1.810631275      7.242525101     12.674419403
141     1      1.810631275     10.863787651      1.810631275
142     1      1.810631275     10.863787651      5.431893826
143     1      1.810631275     10.863787651      9.053155899
144     1      1.810631275     10.863787651     12.674419403
145     1      5.431893826      0.000000000      1.810631275
146     1      5.431893826      0.000000000      5.431893826
147     1      5.431893826      0.000000000      9.053155899
148     1      5.431893826      0.000000000     12.674419403
149     1      5.431893826      3.621262550      1.810631275
150     1      5.431893826      3.621262550      5.431893826
151     1      5.431893826      3.621262550      9.053155899
152     1      5.431893826      3.621262550     12.674419403
153     1      5.431893826      7.242525101      1.810631275
154     1      5.431893826      7.242525101      5.431893826
155     1      5.431893826      7.242525101      9.053155899
156     1      5.431893826      7.242525101     12.674419403
157     1      5.431893826     10.863787651      1.810631275
158     1      5.431893826     10.863787651      5.431893826
159     1      5.431893826     10.863787651      9.053155899
160     1      5.431893826     10.863787651     12.674419403
161     1      9.053155899      0.000000000      1.810631275
162     1      9.053155899      0.000000000      5.431893826
163     1      9.053155899      0.000000000      9.053155899
164     1      9.053155899      0.000000000     12.674419403
165     1      9.053155899      3.621262550      1.810631275
166     1      9.053155899      3.621262550      5.431893826
167     1      9.053155899      3.621262550      9.053155899
168     1      9.053155899      3.621262550     12.674419403
169     1      9.053155899      7.242525101      1.810631275
170     1      9.053155899      7.242525101      5.431893826
171     1      9.053155899      7.242525101      9.053155899
172     1      9.053155899      7.242525101     12.674419403
173     1      9.053155899     10.863787651      1.810631275
174     1      9.053155899     10.863787651      5.431893826
175     1      9.053155899     10.863787651      9.053155899
176     1      9.053155899     10.863787651     12.674419403
177     1     12.674419403      0.000000000      1.810631275
178     1     12.674419403      0.000000000      5.431893826
179     1     12.674419403      0.000000000      9.053155899
180     1     12.674419403      0.000000000     12.674419403
181     1     12.674419403      3.621262550      1.810631275
182     1     12.674419403      3.621262550      5.431893826
183     1     12.674419403      3.621262550      9.053155899
184     1     12.674419403      3.621262550     12.674419403
185     1     12.674419403      7.242525101      1.810631275
186     1     12.674419403      7.242525101      5.431893826
187     1     12.674419403      7.242525101      9.053155899
188     1     12.674419403      7.242525101     12.674419403
189     1     12.674419403     10.863787651      1.810631275
190     1     12.674419403     10.863787651      5.431893826
191     1     12.674419403     10.863787651      9.053155899
192     1     12.674419403     10.863787651     12.674419403
193     1      1.810631275      1.810631275      0.000000000
194     1      1.810631275      1.810631275      3.621262550
195     1      1.810631275      1.810631275      7.242525101
196     1      1.810631275      1.810631275     10.863787651
197     1      1.810631275      5.431893826      0.000000000
198     1      1.810631275      5.431893826      3.621262550
199     1      1.810631275      5.431893826      7.242525101
200     1      1.810631275      5.431893826     10.863787651
201     1      1.810631275      9.053155899      0.000000000
202     1      1.810631275      9.053155899      3.621262550
203     1      1.810631275      9.053155899      7.242525101
204     1      1.810631275      9.053155899     10.863787651
205     1      1.810631275     12.674419403      0.000000000
206     1      1.810631275     12.674419403      3.621262550
207     1      1.810631275     12.674419403      7.242525101
208     1      1.810631275     12.674419403     10.863787651
209     1      5.431893826      1.810631275      0.000000000
210     1      5.431893826      1.810631275      3.621262550
211     1      5.431893826      1.810631275      7.242525101
212     1      5.431893826      1.810631275     10.863787651
213     1      5.431893826      5.431893826      0.000000000
214     1      5.431893826      5.431893826      3.621262550
215     1      5.431893826      5.431893826      7.242525101
216     1      5.431893826      5.431893826     10.863787651
217     1      5.431893826      9.053155899      0.000000000
218     1      5.431893826      9.053155899      3.621262550
219     1      5.431893826      9.053155899      7.242525101
220     1      5.431893826      9.053155899     10.863787651
221     1      5.431893826     12.674419403      0.000000000
222     1      5.431893826     12.674419403      3.621262550
223     1      5.431893826     12.674419403      7.242525101
224     1      5.431893826     12.674419403     10.863787651
225     1      9.053155899      1.810631275      0.000000000
226     1      9.053155899      1.810631275      3.621262550
227     1      9.053155899      1.810631275      7.242525101
228     1      9.053155899      1.810631275     10.863787651
229     1      9.053155899      5.431893826      0.000000000
230     1      9.053155899      5.431893826      3.621262550
231     1      9.053155899      5.431893826      7.242525101
232     1      9.053155899      5.431893826     10.863787651
233     1      9.053155899      9.053155899      0.000000000
234     1      9.053155899      9.053155899      3.621262550
235     1      9.053155899      9.053155899      7.242525101
236     1      9.053155899      9.053155899     10.863787651
237     1      9.053155899     12.674419403      0.000000000
238     1      9.053155899     12.674419403      3.621262550
239     1      9.053155899     12.674419403      7.242525101
240     1      9.053155899     12.674419403     10.863787651
241     1     12.674419403      1.810631275      0.000000000
242     1     12.674419403      1.810631275      3.621262550
243     1     12.674419403      1.810631275      7.242525101
244     1     12.674419403      1.810631275     10.863787651
245     1     12.674419403      5.431893826      0.000000000
246     1     12.674419403      5.431893826      3.621262550
247     1     12.674419403      5.431893826      7.242525101
248     1     12.674419403      5.431893826     10.863787651
249     1     12.674419403      9.053155899      0.000000000
250     1     12.674419403      9.053155899      3.621262550
251     1     12.674419403      9.053155899      7.242525101
252     1     12.674419403      9.053155899     10.863787651
253     1     12.674419403     12.674419403      0.000000000
254     1     12.674419403     12.674419403      3.621262550
255     1     12.674419403     12.674419403      7.242525101
256     1     12.674419403     12.674419403     10.863787651
