molecular system: 
2 atoms
0 bonds
0 angles
0 dihedrals
0 impropers
2 atom types
0 bond types
0 angle types
0 dihedral types
0 improper types

0.0 3.9072814170342265 xlo xhi
0.0 3.9072814170342265 ylo yhi
0.0 3.9072814170342265 zlo zhi

Masses

     1  55.847000 # Fe2+ Fe2+ 
     2  15.999400 # O    O    

Atoms

     1      1      1   0.945000   0.000000   0.000000   1.953641 # Fe2+
     2      2      2  -0.945000   1.953641   1.953641   1.953641 # O

PairIJ Coeffs

  1   1         0.000000     1.000000         0.000000 # Fe2+-Fe2+
  1   2    300546.499824     0.190000         0.000000 # Fe2+-O
  2   2    208070.476335     0.265000      1962.270404 # O-O
