# LAMMPS data file written by Ovito Basic 3.0.0-dev791
324 atoms
2 atom types
-7.21055  7.21055 xlo xhi
-7.21055  7.21055 ylo yhi
-7.21055 77.21055 zlo zhi

Atoms  # atomic

1 2 -7.1910236864 -7.2231528444 -7.2298884067
2 2 -7.2293093995 -4.8130709672 -4.7897087852
3 2 -4.7911941585 -7.1881351401 -4.8194162512
4 2 -4.8108933811 -4.8002650304 -7.2250277749
5 1 -3.5977904491 -3.592151799 -3.5341357137
6 1 -3.6106252281 -5.995021439 -3.6331365652
7 1 -3.628492971 -6.0077192175 -6.0295642998
8 1 -3.6076833237 -3.6192923092 -5.9812997623
9 1 -6.013835206 -3.6263730693 -6.0061819283
10 1 -5.9878483838 -5.9969855928 -6.0122056217
11 1 -6.0255062023 -6.0061703914 -3.5973145528
12 1 -6.020901545 -3.5657323438 -3.5934352769
13 2 -2.4261049163 -7.2172595177 -7.2088429456
14 2 -2.4119866594 -4.8084994785 -4.7996449231
15 2 0.009229504 -7.2184679915 -4.7865217221
16 2 -0.0010527403 -4.8311261844 -7.2168257599
17 1 1.219736638 -3.5719766801 -3.6300648709
18 1 1.1701424751 -5.9739118328 -3.6019148837
19 1 1.2266155027 -6.0615877945 -5.9800811794
20 1 1.2356863746 -3.6266903335 -6.0178788825
21 1 -1.2235005451 -3.5627904394 -6.0282750535
22 1 -1.1906637004 -5.9742089075 -5.9921386611
23 1 -1.1932450773 -6.0469489359 -3.5718468902
24 1 -1.1824725156 -3.5956993896 -3.6323722469
25 2 2.3988201951 -7.2212629305 -7.2118726528
26 2 2.4077612771 -4.7997891341 -4.8213054153
27 2 4.8057738906 -7.2164406444 -4.8275930149
28 2 4.7935159556 -4.7872716193 -7.1883514566
29 1 6.0131228037 -3.6532684208 -3.6428563866
30 1 5.9788871123 -6.0318803285 -3.577730699
31 1 6.0267940065 -5.9944633424 -5.9933687809
32 1 6.0032731924 -3.5919354825 -6.0673317186
33 1 3.6072651118 -3.5731015259 -5.9866817168
34 1 3.5878110479 -5.9772214752 -5.9838422023
35 1 3.5965213923 -6.0105010477 -3.5951658089
36 1 3.6308580314 -3.5976750803 -3.5920941146
37 2 -7.2291400958 -2.4101119164 -7.2295029307
38 2 -7.2184907047 0.010238981 -4.7871850927
39 2 -4.8141813919 -2.3912779598 -4.814195813
40 2 -4.8153206588 -0.0144643633 -7.2260534036
41 1 -3.6169272488 1.1808861946 -3.6041934175
42 1 -3.6111011244 -1.20704607 -3.635126677
43 1 -3.655172006 -1.188154429 -6.0446271388
44 1 -3.5497249228 1.2152949392 -6.0309991993
45 1 -5.9871258867 1.2002104686 -6.0174231757
46 1 -6.0702635282 -1.2103052386 -6.0095954026
47 1 -5.9732354832 -1.1582450676 -3.5763030101
48 1 -6.0533129673 1.2143287255 -3.6170426176
49 2 -2.3856681519 -2.3977097704 -7.2082780134
50 2 -2.4220093239 -4.037908e-04 -4.8299292331
51 2 -0.0098207691 -2.3846154116 -4.8209304667
52 2 -0.0139019404 -0.0082632903 -7.2328437227
53 1 1.1822273569 1.2090217607 -3.5838019821
54 1 1.1967782468 -1.1880679024 -3.5851143022
55 1 1.1888610629 -1.2254329725 -5.987614762
56 1 1.2284902457 1.1557502173 -6.0070789207
57 1 -1.2048684839 1.2124828247 -5.9790515128
58 1 -1.261413617 -1.1604226537 -6.0595255772
59 1 -1.2109541881 -1.1782182911 -3.6464616616
60 1 -1.2056472233 1.1588940171 -3.6004150893
61 2 2.4177550994 -2.4194856314 -7.2323486463
62 2 2.4098811788 0.0069509702 -4.8010437698
63 2 4.8174405605 -2.3840818309 -4.8031348293
64 2 4.7943379583 -0.0119550919 -7.2188351383
65 1 6.0019464512 1.2212796957 -3.5968674987
66 1 6.028740855 -1.1680081523 -3.5887484194
67 1 5.9247503029 -1.2259232899 -6.0135828368
68 1 5.9997977073 1.1908800169 -6.0093401492
69 1 3.6085485897 1.2496459994 -5.9831773895
70 1 3.5878975745 -1.1686282596 -6.0566009781
71 1 3.6342758321 -1.1842751531 -3.6284641288
72 1 3.5735774222 1.1778866058 -3.5880994699
73 2 -7.2024337905 2.384528885 -7.2167032959
74 2 -7.2260675362 4.8239012133 -4.7964145967
75 2 -4.788526255 2.4082804367 -4.8196037255
76 2 -4.7843008727 4.8285736497 -7.2239302715
77 1 -3.6249165382 6.0108875332 -3.5930314861
78 1 -3.532015812 3.5980788711 -3.5855901985
79 1 -3.5700730949 3.5680829831 -6.0017171557
80 1 -3.5721929966 5.9894433575 -6.0230762469
81 1 -6.0005663519 6.0402921561 -5.9991631789
82 1 -6.0305752189 3.6223063191 -5.9986916089
83 1 -5.997315836 3.6061114238 -3.5846239848
84 1 -6.014515882 6.0218764114 -3.6242964309
85 2 -2.3858412051 2.4203364763 -7.2108937327
86 2 -2.4019063105 4.7857718249 -4.8069131575
87 2 0.0128059368 2.3818609815 -4.8054854686
88 2 0.0201751189 4.8139218121 -7.1884490874
89 1 1.1895388546 6.0285389596 -3.5605263267
90 1 1.2250868661 3.6047414193 -3.5646363402
91 1 1.2097283946 3.5759857459 -5.9506491564
92 1 1.221611381 5.9585389402 -6.0082729878
93 1 -1.2094688148 6.0561553661 -5.9784674583
94 1 -1.1871016887 3.6391213217 -6.0368065762
95 1 -1.1646624571 3.5746590047 -3.6605799185
96 1 -1.1946150818 5.9733205677 -3.5722939443
97 2 2.3920566992 2.4252973347 -7.2127978024
98 2 2.4226726945 4.816791611 -4.823569528
99 2 4.7933717446 2.4173513086 -4.8051393622
100 2 4.8172819284 4.7961405958 -7.2328669407
101 1 6.0057392005 6.0244289461 -3.6106829125
102 1 6.0092867911 3.6016553039 -3.5943293851
103 1 6.0052633042 3.591286533 -6.0020171146
104 1 6.0368599343 5.9641920114 -6.0485222779
105 1 3.6053182633 6.0378549902 -6.0602250005
106 1 3.6287237086 3.6589503342 -6.0357120147
107 1 3.6272094931 3.6125143922 -3.603256046
108 1 3.6036454157 6.0040086685 -3.6402461675
109 2 -7.2103992303 -7.2140093623 -2.3995556712
110 2 -7.1956734817 -4.8055575741 0.0117676176
111 2 -4.7982893397 -7.2090624203 -0.0048310685
112 2 -4.8158830817 -4.8166329789 -2.4186492076
113 1 -3.5942861218 -3.6006458269 1.2484202059
114 1 -3.6435918627 -6.0352375605 1.1875343217
115 1 -3.6005881425 -5.9849555112 -1.208632391
116 1 -3.6123846023 -3.6276565472 -1.1661478304
117 1 -6.0093343807 -3.5934352769 -1.1873756896
118 1 -5.9783607421 -6.014018354 -1.1775837627
119 1 -6.0705706977 -5.978305942 1.2406183908
120 1 -5.9948166594 -3.5920364302 1.2076517562
121 2 -2.4050789525 -7.2049599346 -2.3888263728
122 2 -2.405295269 -4.7940495363 0.0144787844
123 2 -0.026390613 -7.2359266655 0.0170457402
124 2 0.011248458 -4.8120903324 -2.4093475981
125 1 1.2294997227 -3.58941179 1.241368288
126 1 1.1302537125 -5.9821059018 1.2253464459
127 1 1.2055318545 -6.0669322541 -1.1577547502
128 1 1.1530390505 -3.6601040222 -1.2122809293
129 1 -1.2048540628 -3.5733611057 -1.1977156183
130 1 -1.1838425201 -5.9888405555 -1.210651345
131 1 -1.236465114 -6.0134429521 1.2018977373
132 1 -1.2002537319 -3.6497929357 1.1882842189
133 2 2.383952041 -7.1931962251 -2.3888119517
134 2 2.3784576019 -4.8041154641 0.0207231207
135 2 4.7885406761 -7.1930305267 0.0202616455
136 2 4.7993132378 -4.7925930052 -2.4020937848
137 1 6.0118249047 -3.5980932922 1.1821696725
138 1 5.9581495705 -5.9820626385 1.2079401782
139 1 6.0209390399 -5.9982892602 -1.1919904416
140 1 5.9900346226 -3.6173743029 -1.2200683233
141 1 3.5837442977 -3.5419519499 -1.1706472136
142 1 3.613495027 -5.9348695888 -1.1754205977
143 1 3.5410289995 -6.0100424567 1.240647233
144 1 3.5883157864 -3.6619355019 1.2258511844
145 2 -7.1998864186 -2.3941333376 -2.392604701
146 2 -7.2025338874 -0.0164112118 -0.0196992226
147 2 -4.7905740512 -2.4062614827 -0.0144787844
148 2 -4.7902135237 0.0081190793 -2.4094052825
149 1 -3.5802976548 1.1465639766 1.2078392305
150 1 -3.5976606592 -1.2365516406 1.1855730521
151 1 -3.5840471408 -1.1727959575 -1.2179195794
152 1 -3.6062123715 1.2005854172 -1.2092957616
153 1 -5.996555844 1.2134057751 -1.250742003
154 1 -6.014608177 -1.1899426454 -1.2116175587
155 1 -5.9732167358 -1.2012343667 1.2177321051
156 1 -5.9728461135 1.2213373801 1.1736756446
157 2 -2.406304746 -2.3994403024 -2.3865189968
158 2 -2.4111358145 -0.0029851677 -0.0159353155
159 2 -0.0012834779 -2.4023245224 0.017882164
160 2 -0.0059991776 -0.0093304517 -2.3934988092
161 1 1.239060912 1.2294131961 1.2010036291
162 1 1.2136365127 -1.1825446211 1.2253320248
163 1 1.2053588013 -1.2507131608 -1.1966772991
164 1 1.1790114516 1.1356904672 -1.1899282243
165 1 -1.2006142594 1.1886880097 -1.1875631639
166 1 -1.1935911837 -1.1956245588 -1.2213085379
167 1 -1.2179484216 -1.2261107642 1.1644749828
168 1 -1.1800353497 1.1836406247 1.2499200003
169 2 2.3870814197 -2.3890282682 -2.4150150904
170 2 2.3886533196 -0.0101380333 -0.0120416185
171 2 4.795736805 -2.4181877324 0.0154882614
172 2 4.8208872034 0.019035852 -2.409188966
173 1 6.0635101271 1.1992730971 1.2112714523
174 1 6.0218619903 -1.2052722747 1.1965763514
175 1 6.014463966 -1.20704607 -1.1912693866
176 1 6.0039798263 1.1915001242 -1.2127424045
177 1 3.6022609901 1.2554144394 -1.204594483
178 1 3.5989729793 -1.1512940974 -1.2487663123
179 1 3.6045251028 -1.200989208 1.1585190685
180 1 3.6511485191 1.1755359665 1.2228660167
181 2 -7.2263011581 2.4170484655 -2.3961667127
182 2 -7.226499304 4.8264681691 -0.0084219224
183 2 -4.8063651557 2.4019928371 -0.0056386501
184 2 -4.7901269971 4.7894492054 -2.4081506468
185 1 -3.5660207658 5.9813386993 1.1949900304
186 1 -3.6564843261 3.5623145431 1.2341288958
187 1 -3.5691213023 3.5571806315 -1.1906925426
188 1 -3.6102214373 6.0045278281 -1.1893513803
189 1 -6.0147668091 6.0363696169 -1.2175157886
190 1 -5.9968990662 3.6148361893 -1.1785499764
191 1 -6.0773385199 3.6080582723 1.2073633342
192 1 -5.9637060203 6.0167569209 1.1728536419
193 2 -2.3919269093 2.3851489923 -2.412361608
194 2 -2.3983154566 4.7802629647 0.0131520432
195 2 -0.0019324274 2.4078478037 0.025813769
196 2 0.0219056509 4.7888867825 -2.3829569851
197 1 1.2429113457 6.0580301091 1.2058491187
198 1 1.1583315942 3.6372033154 1.2760942968
199 1 1.2225631736 3.5535176721 -1.1541927385
200 1 1.1619801325 5.9541116625 -1.1704741604
201 1 -1.2246542331 5.9894866208 -1.188154429
202 1 -1.194211291 3.6123701812 -1.211516611
203 1 -1.2225199103 3.5428604792 1.1598025464
204 1 -1.1752908078 5.9966971708 1.2234284396
205 2 2.3897349021 2.3851634134 -2.3880187912
206 2 2.4091168605 4.8208150979 0.0194973272
207 2 4.8193297246 2.4012285188 0.0120704607
208 2 4.8183058265 4.8109366444 -2.3980126135
209 1 6.0343362418 6.0441570109 1.2056616444
210 1 5.9941878994 3.6299062388 1.1857893686
211 1 6.013310278 3.5791295457 -1.2010613135
212 1 5.9519052342 6.0263902157 -1.1889620106
213 1 3.5793458622 6.0705187817 -1.2474395711
214 1 3.6069766898 3.6719293242 -1.2199962178
215 1 3.5898732652 3.5889503148 1.2140979879
216 1 3.6196528367 5.9814108048 1.1822273569
217 2 -7.2191573056 -7.1955713803 2.4107897081
218 2 -7.201381728 -4.7930977437 4.7948282757
219 2 -4.8002650304 -7.2194271965 4.8163012936
220 2 -4.8266989067 -4.8058748383 2.4144094042
221 1 -3.5626318073 -3.6239935878 6.0622410703
222 1 -3.6173598818 -6.042533195 5.9806753287
223 1 -3.5724525764 -6.0008706371 3.5629346504
224 1 -3.618542412 -3.6125432344 3.6580129627
225 1 -6.0086219784 -3.5666985575 3.6067603733
226 1 -5.9906100245 -6.0145245346 3.6174608295
227 1 -6.0490717218 -5.9461411205 5.9981248597
228 1 -6.0160690344 -3.5651410787 6.035807194
229 2 -2.3864324702 -7.2105144031 2.3959503962
230 2 -2.3883072132 -4.7923766887 4.8006111368
231 2 -0.011825302 -7.2288032189 4.8031492504
232 2 -0.0135990973 -4.8113260141 2.4245041742
233 1 1.2129731421 -3.6282478123 5.9835162854
234 1 1.1729257474 -6.0113951559 6.030759809
235 1 1.220746115 -6.0094987813 3.607438165
236 1 1.202142896 -3.6083611154 3.6041501542
237 1 -1.1886303253 -3.5636989687 3.5750195322
238 1 -1.1881688501 -5.9993016215 3.6031695194
239 1 -1.2254329725 -6.0300675962 5.9837614441
240 1 -1.1820110404 -3.5860805159 5.9838768129
241 2 2.3934843881 -7.2001075084 2.3995845134
242 2 2.4089293862 -4.8236560546 4.8035530412
243 2 4.825588482 -7.2130605405 4.791987319
244 2 4.7961982802 -4.8298138643 2.4118136062
245 1 6.0016436081 -3.6407797482 5.9430650999
246 1 6.0240251553 -6.019261866 6.0271689551
247 1 6.0199007207 -6.0299507853 3.6197393633
248 1 6.0165982888 -3.6271662298 3.5366161429
249 1 3.6298918177 -3.5686309849 3.6191769404
250 1 3.6102502795 -5.9977672164 3.6366264714
251 1 3.6128316564 -6.0268387119 5.9985142294
252 1 3.5886042084 -3.5750339533 6.042585111
253 2 -7.1878875298 -2.3900810085 2.3955754476
254 2 -7.2230019421 -0.0036918016 4.7862477212
255 2 -4.786795723 -2.4222833248 4.8265691168
256 2 -4.8225744721 -0.0112051947 2.4186924709
257 1 -3.6487690376 1.166378568 5.9971730671
258 1 -3.544129536 -1.2469348326 5.9912171528
259 1 -3.618398201 -1.2047963784 3.6172012497
260 1 -3.6808127218 1.1977011972 3.6377801594
261 1 -6.0734823177 1.1888033785 3.5799659695
262 1 -6.0309645886 -1.238484068 3.6242820098
263 1 -5.961564487 -1.1569183264 5.9966683286
264 1 -6.0631669049 1.2484202059 5.9373687654
265 2 -2.4009112546 -2.4225284835 2.4143949831
266 2 -2.3974934539 0.0161083687 4.8215217318
267 2 -0.0072538133 -2.3844712006 4.7932563758
268 2 -0.0040523291 -0.0026534824 2.4197884745
269 1 1.1325322463 1.2101610276 5.9997977073
270 1 1.2676723744 -1.2108676615 6.0020906622
271 1 1.1822850413 -1.1953217157 3.6293005526
272 1 1.1602351794 1.1962590872 3.5781056476
273 1 -1.2459541978 1.2102331331 3.6509177815
274 1 -1.2150786227 -1.1783192388 3.5618963312
275 1 -1.1392092156 -1.203873428 5.9674656011
276 1 -1.2543328569 1.2146604108 6.0210832509
277 2 2.4121597126 -2.4033916838 2.3860575216
278 2 2.3781403377 0.0195838538 4.8018369303
279 2 4.7995439754 -2.3930517551 4.7887137293
280 2 4.8148880258 0.0051339116 2.4008679913
281 1 5.9447091053 1.1614465518 5.970623822
282 1 6.0453395411 -1.2399405991 5.9943321104
283 1 6.0184586107 -1.2282162448 3.6208642091
284 1 5.9464973217 1.1885293776 3.5806581823
285 1 3.5554500995 1.2417143944 3.6150092425
286 1 3.5790141769 -1.1867988456 3.5545704124
287 1 3.6283920233 -1.1674168872 5.938032136
288 1 3.5553635729 1.2113435578 6.0348842436
289 2 -7.2168568373 2.3919557515 2.3804477137
290 2 -7.187699767 4.7902856292 4.8241607931
291 2 -4.8126671764 2.3855960464 4.8014619817
292 2 -4.8147149726 4.7982172342 2.387124683
293 1 -3.6117789161 5.9996390752 5.9860976623
294 1 -3.5814657639 3.5639152852 6.0150840733
295 1 -3.580470708 3.6126009188 3.6279593903
296 1 -3.6065152146 6.0475748116 3.5572383159
297 1 -6.0172400277 5.981151225 3.5962618125
298 1 -5.9443182935 3.5775143825 3.6021600424
299 1 -5.9539097671 3.6574216976 6.0084936306
300 1 -5.9983440604 6.0393547846 6.0197853519
301 2 -2.4185049966 2.3839231988 2.4143084565
302 2 -2.4026706288 4.8068843153 4.8043029384
303 2 -7.2105499999e-05 2.4088717018 4.8038847265
304 2 -0.0035475906 4.820541097 2.4272009199
305 1 1.1640279287 6.0091714223 6.0343939262
306 1 1.2203279031 3.6358333109 6.067389403
307 1 1.2424931338 3.5748032157 3.655604639
308 1 1.2131894586 6.0067054142 3.617388724
309 1 -1.2391041753 6.0090993168 3.6484950367
310 1 -1.1720172181 3.6200422064 3.5432354278
311 1 -1.1442710217 3.6164801947 5.946107952
312 1 -1.1993740448 5.9718351944 6.0311491787
313 2 2.4222977459 2.4039396856 2.3903838516
314 2 2.3971185053 4.8126239131 4.8125229654
315 2 4.8077495813 2.406016324 4.7983614452
316 2 4.8289630194 4.8192720402 2.4123327658
317 1 6.0172905016 5.9714602458 5.9637593784
318 1 6.0603951695 3.5439564828 6.03523035
319 1 6.0575686339 3.5708374132 3.6101060685
320 1 6.0132381725 5.9506217563 3.613639238
321 1 3.6223495824 6.0185162951 3.5828069262
322 1 3.6577822251 3.6631901376 3.576721222
323 1 3.6197826266 3.6232436906 5.9621442152
324 1 3.6010640388 6.0280630633 5.9698450826
