#Generated by 

32 atoms
1 atom types

0.0 17.953542 xlo xhi
0.0 17.953542 ylo yhi
0.0 17.953542 zlo zhi

Atoms

 1     1    0.000000000     0.000000000     0.000000000
 2     1    0.000000000     0.000000000     3.976770878
 3     1    0.000000000     3.976770878     0.000000000
 4     1    0.000000000     3.976770878     3.976770878
 5     1    3.976770878     0.000000000     0.000000000
 6     1    3.976770878     0.000000000     3.976770878
 7     1    3.976770878     3.976770878     0.000000000
 8     1    3.976770878     3.976770878     3.976770878
 9     1    0.000000000     1.988385439     1.988385439
10     1    0.000000000     1.988385439     5.965156555
11     1    0.000000000     5.965156555     1.988385439
12     1    0.000000000     5.965156555     5.965156555
13     1    3.976770878     1.988385439     1.988385439
14     1    3.976770878     1.988385439     5.965156555
15     1    3.976770878     5.965156555     1.988385439
16     1    3.976770878     5.965156555     5.965156555
17     1    1.988385439     0.000000000     1.988385439
18     1    1.988385439     0.000000000     5.965156555
19     1    1.988385439     3.976770878     1.988385439
20     1    1.988385439     3.976770878     5.965156555
21     1    5.965156555     0.000000000     1.988385439
22     1    5.965156555     0.000000000     5.965156555
23     1    5.965156555     3.976770878     1.988385439
24     1    5.965156555     3.976770878     5.965156555
25     1    1.988385439     1.988385439     0.000000000
26     1    1.988385439     1.988385439     3.976770878
27     1    1.988385439     5.965156555     0.000000000
28     1    1.988385439     5.965156555     3.976770878
29     1    5.965156555     1.988385439     0.000000000
30     1    5.965156555     1.988385439     3.976770878
31     1    5.965156555     5.965156555     0.000000000
32     1    5.965156555     5.965156555     3.976770878