molecular system: 
240 atoms
0 bonds
0 angles
0 dihedrals
0 impropers
2 atom types
0 bond types
0 angle types
0 dihedral types
0 improper types

0.0 18.426683253626166 xlo xhi
0.0 18.426683253626166 ylo yhi
0.0 18.426683253626166 zlo zhi

Masses

     1  39.098300 # K    K    
     2  15.999400 # O    O    

Atoms

     1      1      1   0.472500   5.264767   7.897150   5.264767 # K
     2      2      1   0.472500  13.161917  13.161917  13.161917 # K
     3      3      1   0.472500   5.264767  10.529533  13.161917 # K
     4      4      1   0.472500   5.264767   0.000000   2.632383 # K
     5      5      1   0.472500  15.794300  10.529533  13.161917 # K
     6      6      1   0.472500  10.529533  13.161917   5.264767 # K
     7      7      1   0.472500   2.632383   5.264767   7.897150 # K
     8      8      1   0.472500  10.529533  13.161917  10.529533 # K
     9      9      1   0.472500   0.000000  10.529533   5.264767 # K
    10     10      1   0.472500   0.000000  10.529533  10.529533 # K
    11     11      1   0.472500   2.632383   0.000000   2.632383 # K
    12     12      1   0.472500   2.632383  13.161917   0.000000 # K
    13     13      1   0.472500  15.794300   5.264767   0.000000 # K
    14     14      1   0.472500  13.161917  10.529533  13.161917 # K
    15     15      1   0.472500  10.529533   7.897150  15.794300 # K
    16     16      1   0.472500   5.264767   7.897150  15.794300 # K
    17     17      1   0.472500   7.897150  10.529533   0.000000 # K
    18     18      1   0.472500   0.000000   5.264767  13.161917 # K
    19     19      1   0.472500  15.794300   5.264767  13.161917 # K
    20     20      1   0.472500   0.000000  13.161917   7.897150 # K
    21     21      1   0.472500   7.897150  13.161917   2.632383 # K
    22     22      1   0.472500   0.000000   2.632383  10.529533 # K
    23     23      1   0.472500  10.529533   5.264767   0.000000 # K
    24     24      1   0.472500  13.161917  15.794300   5.264767 # K
    25     25      1   0.472500   2.632383  10.529533   7.897150 # K
    26     26      1   0.472500  13.161917   5.264767   0.000000 # K
    27     27      1   0.472500   5.264767   5.264767  13.161917 # K
    28     28      1   0.472500   0.000000   2.632383   0.000000 # K
    29     29      1   0.472500  15.794300  10.529533  10.529533 # K
    30     30      1   0.472500  15.794300   7.897150   2.632383 # K
    31     31      1   0.472500   5.264767  10.529533   7.897150 # K
    32     32      1   0.472500   2.632383   2.632383  10.529533 # K
    33     33      1   0.472500   7.897150   5.264767  15.794300 # K
    34     34      1   0.472500   5.264767   0.000000   0.000000 # K
    35     35      1   0.472500   0.000000   5.264767  10.529533 # K
    36     36      1   0.472500  10.529533   5.264767  15.794300 # K
    37     37      1   0.472500  13.161917  13.161917  15.794300 # K
    38     38      1   0.472500   5.264767   5.264767  10.529533 # K
    39     39      1   0.472500  10.529533  10.529533  13.161917 # K
    40     40      1   0.472500   5.264767  15.794300   0.000000 # K
    41     41      1   0.472500   7.897150   0.000000  15.794300 # K
    42     42      1   0.472500  10.529533  10.529533  15.794300 # K
    43     43      1   0.472500   0.000000  15.794300   7.897150 # K
    44     44      1   0.472500   2.632383   5.264767   2.632383 # K
    45     45      1   0.472500  13.161917  10.529533   0.000000 # K
    46     46      1   0.472500   0.000000   5.264767   2.632383 # K
    47     47      1   0.472500  15.794300   2.632383  15.794300 # K
    48     48      1   0.472500   0.000000   5.264767   5.264767 # K
    49     49      1   0.472500   2.632383  15.794300   7.897150 # K
    50     50      1   0.472500   7.897150   2.632383  10.529533 # K
    51     51      1   0.472500   0.000000   7.897150   0.000000 # K
    52     52      1   0.472500  10.529533   2.632383  13.161917 # K
    53     53      1   0.472500   5.264767  13.161917   0.000000 # K
    54     54      1   0.472500  10.529533   2.632383   0.000000 # K
    55     55      1   0.472500   2.632383  13.161917   2.632383 # K
    56     56      1   0.472500  13.161917   2.632383   7.897150 # K
    57     57      1   0.472500   2.632383  13.161917  13.161917 # K
    58     58      1   0.472500   2.632383  13.161917   5.264767 # K
    59     59      1   0.472500   7.897150  10.529533  15.794300 # K
    60     60      1   0.472500   5.264767  13.161917  15.794300 # K
    61     61      1   0.472500   0.000000   7.897150   7.897150 # K
    62     62      1   0.472500  15.794300  15.794300   2.632383 # K
    63     63      1   0.472500  13.161917  13.161917   0.000000 # K
    64     64      1   0.472500  13.161917   2.632383   5.264767 # K
    65     65      1   0.472500  15.794300  13.161917   2.632383 # K
    66     66      1   0.472500   7.897150   5.264767   0.000000 # K
    67     67      1   0.472500   7.897150   5.264767   2.632383 # K
    68     68      1   0.472500  10.529533   0.000000  15.794300 # K
    69     69      1   0.472500  10.529533  15.794300   7.897150 # K
    70     70      1   0.472500   2.632383   2.632383  13.161917 # K
    71     71      1   0.472500  10.529533   7.897150  13.161917 # K
    72     72      1   0.472500  15.794300   7.897150  15.794300 # K
    73     73      1   0.472500   7.897150   7.897150   7.897150 # K
    74     74      1   0.472500   5.264767   7.897150  10.529533 # K
    75     75      1   0.472500  15.794300  15.794300  10.529533 # K
    76     76      1   0.472500  10.529533   7.897150  10.529533 # K
    77     77      1   0.472500   0.000000  13.161917   0.000000 # K
    78     78      1   0.472500   5.264767  13.161917  10.529533 # K
    79     79      1   0.472500  10.529533   2.632383   5.264767 # K
    80     80      1   0.472500   0.000000   7.897150   5.264767 # K
    81     81      1   0.472500   0.000000   0.000000   2.632383 # K
    82     82      1   0.472500  13.161917   5.264767   7.897150 # K
    83     83      1   0.472500  15.794300  15.794300  15.794300 # K
    84     84      1   0.472500  13.161917   7.897150   2.632383 # K
    85     85      1   0.472500   0.000000   0.000000   5.264767 # K
    86     86      1   0.472500  13.161917  10.529533  10.529533 # K
    87     87      1   0.472500  13.161917  13.161917  10.529533 # K
    88     88      1   0.472500   7.897150   5.264767   5.264767 # K
    89     89      1   0.472500  13.161917   5.264767  13.161917 # K
    90     90      1   0.472500  13.161917   7.897150   0.000000 # K
    91     91      1   0.472500   7.897150  10.529533   2.632383 # K
    92     92      1   0.472500   7.897150  15.794300  15.794300 # K
    93     93      1   0.472500   7.897150  10.529533   7.897150 # K
    94     94      1   0.472500   2.632383   7.897150   5.264767 # K
    95     95      1   0.472500  10.529533   0.000000  10.529533 # K
    96     96      1   0.472500   0.000000   7.897150  13.161917 # K
    97     97      1   0.472500  10.529533  15.794300   5.264767 # K
    98     98      1   0.472500  13.161917   7.897150  10.529533 # K
    99     99      1   0.472500  15.794300  15.794300   0.000000 # K
   100    100      1   0.472500  15.794300   0.000000  15.794300 # K
   101    101      1   0.472500   5.264767  10.529533   2.632383 # K
   102    102      1   0.472500   7.897150   2.632383  13.161917 # K
   103    103      1   0.472500   2.632383  10.529533  15.794300 # K
   104    104      1   0.472500   5.264767  15.794300   5.264767 # K
   105    105      1   0.472500   0.000000  13.161917  15.794300 # K
   106    106      1   0.472500  13.161917   7.897150   5.264767 # K
   107    107      1   0.472500   5.264767   5.264767  15.794300 # K
   108    108      1   0.472500  13.161917  13.161917   5.264767 # K
   109    109      1   0.472500  13.161917   2.632383  10.529533 # K
   110    110      1   0.472500   2.632383  10.529533  10.529533 # K
   111    111      1   0.472500  15.794300   2.632383  13.161917 # K
   112    112      1   0.472500  15.794300   2.632383   7.897150 # K
   113    113      1   0.472500   0.000000   0.000000  15.794300 # K
   114    114      1   0.472500  10.529533   0.000000   0.000000 # K
   115    115      1   0.472500   2.632383  15.794300   2.632383 # K
   116    116      1   0.472500   2.632383   7.897150  15.794300 # K
   117    117      1   0.472500  13.161917   0.000000   2.632383 # K
   118    118      1   0.472500  13.161917   2.632383   0.000000 # K
   119    119      1   0.472500   2.632383  15.794300   5.264767 # K
   120    120      1   0.472500  15.794300  10.529533   7.897150 # K
   121    121      1   0.472500  13.161917  13.161917   2.632383 # K
   122    122      1   0.472500   7.897150  15.794300   5.264767 # K
   123    123      1   0.472500   5.264767   5.264767   2.632383 # K
   124    124      1   0.472500  15.794300  10.529533  15.794300 # K
   125    125      1   0.472500  15.794300   5.264767  15.794300 # K
   126    126      1   0.472500   5.264767  13.161917  13.161917 # K
   127    127      1   0.472500  10.529533   2.632383  15.794300 # K
   128    128      1   0.472500   5.264767  13.161917   5.264767 # K
   129    129      1   0.472500   0.000000  10.529533  13.161917 # K
   130    130      1   0.472500   0.000000   2.632383   5.264767 # K
   131    131      1   0.472500   5.264767   2.632383   2.632383 # K
   132    132      1   0.472500  10.529533   7.897150   7.897150 # K
   133    133      1   0.472500   5.264767  15.794300  15.794300 # K
   134    134      1   0.472500   7.897150   7.897150   2.632383 # K
   135    135      1   0.472500  13.161917   0.000000  10.529533 # K
   136    136      1   0.472500   2.632383   0.000000   0.000000 # K
   137    137      1   0.472500   5.264767   0.000000   5.264767 # K
   138    138      1   0.472500   0.000000   7.897150  15.794300 # K
   139    139      1   0.472500   2.632383   0.000000  15.794300 # K
   140    140      1   0.472500   7.897150  10.529533  10.529533 # K
   141    141      1   0.472500   0.000000  10.529533   7.897150 # K
   142    142      1   0.472500   7.897150   2.632383   2.632383 # K
   143    143      1   0.472500   7.897150  15.794300  13.161917 # K
   144    144      1   0.472500  10.529533  13.161917  13.161917 # K
   145    145      1   0.472500   0.000000   0.000000   0.000000 # K
   146    146      1   0.472500   7.897150   2.632383   7.897150 # K
   147    147      1   0.472500   0.000000   7.897150   2.632383 # K
   148    148      1   0.472500   0.000000  15.794300   5.264767 # K
   149    149      1   0.472500  13.161917  10.529533   5.264767 # K
   150    150      1   0.472500   2.632383   5.264767  15.794300 # K
   151    151      1   0.472500  10.529533  13.161917   7.897150 # K
   152    152      1   0.472500   5.264767   2.632383  13.161917 # K
   153    153      1   0.472500   2.632383   5.264767  13.161917 # K
   154    154      1   0.472500   7.897150   0.000000   0.000000 # K
   155    155      1   0.472500   2.632383   7.897150  13.161917 # K
   156    156      1   0.472500   7.897150  13.161917   7.897150 # K
   157    157      1   0.472500   2.632383   5.264767  10.529533 # K
   158    158      1   0.472500  10.529533  15.794300  10.529533 # K
   159    159      1   0.472500  15.794300  13.161917  10.529533 # K
   160    160      1   0.472500  10.529533   5.264767   7.897150 # K
   161    161      2  -0.945000   0.000000   2.632383  13.161917 # O
   162    162      2  -0.945000   7.897150  13.161917  15.794300 # O
   163    163      2  -0.945000   2.632383   0.000000   5.264767 # O
   164    164      2  -0.945000   7.897150   5.264767  10.529533 # O
   165    165      2  -0.945000   2.632383   2.632383   2.632383 # O
   166    166      2  -0.945000   7.897150   7.897150  15.794300 # O
   167    167      2  -0.945000  13.161917   7.897150  13.161917 # O
   168    168      2  -0.945000  15.794300   5.264767   7.897150 # O
   169    169      2  -0.945000   5.264767   0.000000   7.897150 # O
   170    170      2  -0.945000  10.529533  15.794300  15.794300 # O
   171    171      2  -0.945000   2.632383  15.794300  13.161917 # O
   172    172      2  -0.945000  15.794300   5.264767   2.632383 # O
   173    173      2  -0.945000   2.632383  15.794300  10.529533 # O
   174    174      2  -0.945000  15.794300  10.529533   0.000000 # O
   175    175      2  -0.945000  15.794300   0.000000   5.264767 # O
   176    176      2  -0.945000   5.264767  13.161917   2.632383 # O
   177    177      2  -0.945000   2.632383   7.897150   7.897150 # O
   178    178      2  -0.945000   5.264767   2.632383  15.794300 # O
   179    179      2  -0.945000   7.897150  13.161917  13.161917 # O
   180    180      2  -0.945000   5.264767   7.897150   2.632383 # O
   181    181      2  -0.945000   7.897150   7.897150  13.161917 # O
   182    182      2  -0.945000  10.529533   0.000000   2.632383 # O
   183    183      2  -0.945000   7.897150  10.529533   5.264767 # O
   184    184      2  -0.945000  10.529533   5.264767   2.632383 # O
   185    185      2  -0.945000   2.632383  10.529533   0.000000 # O
   186    186      2  -0.945000   0.000000  15.794300  13.161917 # O
   187    187      2  -0.945000   5.264767  10.529533  10.529533 # O
   188    188      2  -0.945000  15.794300  13.161917   0.000000 # O
   189    189      2  -0.945000  15.794300   7.897150  10.529533 # O
   190    190      2  -0.945000   2.632383   2.632383   0.000000 # O
   191    191      2  -0.945000   0.000000  13.161917  13.161917 # O
   192    192      2  -0.945000  15.794300   5.264767   5.264767 # O
   193    193      2  -0.945000  15.794300  13.161917  13.161917 # O
   194    194      2  -0.945000   5.264767   7.897150   7.897150 # O
   195    195      2  -0.945000  10.529533  10.529533   0.000000 # O
   196    196      2  -0.945000  10.529533  13.161917   0.000000 # O
   197    197      2  -0.945000   2.632383  13.161917  15.794300 # O
   198    198      2  -0.945000  10.529533   2.632383   2.632383 # O
   199    199      2  -0.945000  15.794300   0.000000  13.161917 # O
   200    200      2  -0.945000  10.529533  10.529533   7.897150 # O
   201    201      2  -0.945000   5.264767   0.000000  15.794300 # O
   202    202      2  -0.945000   2.632383  10.529533   2.632383 # O
   203    203      2  -0.945000   7.897150  15.794300   2.632383 # O
   204    204      2  -0.945000   0.000000   5.264767   7.897150 # O
   205    205      2  -0.945000   5.264767  13.161917   7.897150 # O
   206    206      2  -0.945000   7.897150   0.000000   2.632383 # O
   207    207      2  -0.945000   0.000000  15.794300   2.632383 # O
   208    208      2  -0.945000   7.897150   0.000000  13.161917 # O
   209    209      2  -0.945000  13.161917   7.897150   7.897150 # O
   210    210      2  -0.945000  15.794300   0.000000  10.529533 # O
   211    211      2  -0.945000   2.632383  15.794300  15.794300 # O
   212    212      2  -0.945000   0.000000  15.794300  15.794300 # O
   213    213      2  -0.945000  15.794300   2.632383   5.264767 # O
   214    214      2  -0.945000   2.632383   7.897150  10.529533 # O
   215    215      2  -0.945000  13.161917  10.529533   2.632383 # O
   216    216      2  -0.945000  10.529533   5.264767   5.264767 # O
   217    217      2  -0.945000   0.000000  10.529533   2.632383 # O
   218    218      2  -0.945000  10.529533   7.897150   0.000000 # O
   219    219      2  -0.945000   0.000000  15.794300   0.000000 # O
   220    220      2  -0.945000   2.632383   2.632383   5.264767 # O
   221    221      2  -0.945000   5.264767   7.897150  13.161917 # O
   222    222      2  -0.945000  10.529533   5.264767  13.161917 # O
   223    223      2  -0.945000   7.897150  13.161917   5.264767 # O
   224    224      2  -0.945000  10.529533  15.794300   2.632383 # O
   225    225      2  -0.945000  10.529533  13.161917   2.632383 # O
   226    226      2  -0.945000  15.794300  10.529533   5.264767 # O
   227    227      2  -0.945000   7.897150  15.794300  10.529533 # O
   228    228      2  -0.945000   0.000000   7.897150  10.529533 # O
   229    229      2  -0.945000   7.897150  15.794300   0.000000 # O
   230    230      2  -0.945000  15.794300  13.161917   5.264767 # O
   231    231      2  -0.945000  13.161917  15.794300  15.794300 # O
   232    232      2  -0.945000   0.000000   5.264767   0.000000 # O
   233    233      2  -0.945000   5.264767  10.529533   0.000000 # O
   234    234      2  -0.945000  15.794300  15.794300   5.264767 # O
   235    235      2  -0.945000   0.000000   2.632383  15.794300 # O
   236    236      2  -0.945000   2.632383  10.529533   5.264767 # O
   237    237      2  -0.945000   0.000000  15.794300  10.529533 # O
   238    238      2  -0.945000   5.264767   5.264767   7.897150 # O
   239    239      2  -0.945000   7.897150   7.897150   0.000000 # O
   240    240      2  -0.945000  10.529533   0.000000   7.897150 # O

PairIJ Coeffs

  1   1         0.000000     1.000000         0.000000 # K-K
  1   2     52688.046848     0.290000         0.000000 # K-O
  2   2    208070.476335     0.265000      1962.270404 # O-O
