molecular system: 
5 atoms
0 bonds
0 angles
0 dihedrals
0 impropers
2 atom types
0 bond types
0 angle types
0 dihedral types
0 improper types

0.0 5.099186807965685 xlo xhi
0.0 5.099186807965685 ylo yhi
0.0 5.099186807965685 zlo zhi

Masses

     1  55.847000 # Fe3+ Fe3+ 
     2  15.999400 # O    O    

Atoms

     1      1      1   1.417500   2.549593   0.000000   0.000000 # Fe3+
     2      2      1   1.417500   0.000000   0.000000   0.000000 # Fe3+
     3      3      2  -0.945000   2.549593   2.549593   0.000000 # O
     4      4      2  -0.945000   2.549593   0.000000   2.549593 # O
     5      5      2  -0.945000   0.000000   0.000000   2.549593 # O

PairIJ Coeffs

  1   1         0.000000     1.000000         0.000000 # Fe3+-Fe3+
  1   2    184951.816372     0.190000         0.000000 # Fe3+-O
  2   2    208070.476335     0.265000      1962.270404 # O-O
