#Generated by 

324 atoms
2 atom types

0.0 14.286406 xlo xhi
0.0 14.286406 ylo yhi
0.0 14.286406 zlo zhi

Atoms

1     1      0.000000000     0.000000000     0.000000000
2     1      0.000000000     0.000000000     4.762135506
3     1      0.000000000     0.000000000     9.524271011
4     1      0.000000000     4.762135506     0.000000000
5     1      0.000000000     4.762135506     4.762135506
6     1      0.000000000     4.762135506     9.524271011
7     1      0.000000000     9.524271011     0.000000000
8     1      0.000000000     9.524271011     4.762135506
9     1      0.000000000     9.524271011     9.524271011
10    1      4.762135506     0.000000000     0.000000000
11    1      4.762135506     0.000000000     4.762135506
12    1      4.762135506     0.000000000     9.524271011
13    1      4.762135506     4.762135506     0.000000000
14    1      4.762135506     4.762135506     4.762135506
15    1      4.762135506     4.762135506     9.524271011
16    1      4.762135506     9.524271011     0.000000000
17    1      4.762135506     9.524271011     4.762135506
18    1      4.762135506     9.524271011     9.524271011
19    1      9.524271011     0.000000000     0.000000000
20    1      9.524271011     0.000000000     4.762135506
21    1      9.524271011     0.000000000     9.524271011
22    1      9.524271011     4.762135506     0.000000000
23    1      9.524271011     4.762135506     4.762135506
24    1      9.524271011     4.762135506     9.524271011
25    1      9.524271011     9.524271011     0.000000000
26    1      9.524271011     9.524271011     4.762135506
27    1      9.524271011     9.524271011     9.524271011
28    1      0.000000000     2.381067753     2.381067753
29    1      0.000000000     2.381067753     7.143202782
30    1      0.000000000     2.381067753    11.905338287
31    1      0.000000000     7.143202782     2.381067753
32    1      0.000000000     7.143202782     7.143202782
33    1      0.000000000     7.143202782    11.905338287
34    1      0.000000000    11.905338287     2.381067753
35    1      0.000000000    11.905338287     7.143202782
36    1      0.000000000    11.905338287    11.905338287
37    1      4.762135506     2.381067753     2.381067753
38    1      4.762135506     2.381067753     7.143202782
39    1      4.762135506     2.381067753    11.905338287
40    1      4.762135506     7.143202782     2.381067753
41    1      4.762135506     7.143202782     7.143202782
42    1      4.762135506     7.143202782    11.905338287
43    1      4.762135506    11.905338287     2.381067753
44    1      4.762135506    11.905338287     7.143202782
45    1      4.762135506    11.905338287    11.905338287
46    1      9.524271011     2.381067753     2.381067753
47    1      9.524271011     2.381067753     7.143202782
48    1      9.524271011     2.381067753    11.905338287
49    1      9.524271011     7.143202782     2.381067753
50    1      9.524271011     7.143202782     7.143202782
51    1      9.524271011     7.143202782    11.905338287
52    1      9.524271011    11.905338287     2.381067753
53    1      9.524271011    11.905338287     7.143202782
54    1      9.524271011    11.905338287    11.905338287
55    1      2.381067753     0.000000000     2.381067753
56    1      2.381067753     0.000000000     7.143202782
57    1      2.381067753     0.000000000    11.905338287
58    1      2.381067753     4.762135506     2.381067753
59    1      2.381067753     4.762135506     7.143202782
60    1      2.381067753     4.762135506    11.905338287
61    1      2.381067753     9.524271011     2.381067753
62    1      2.381067753     9.524271011     7.143202782
63    1      2.381067753     9.524271011    11.905338287
64    1      7.143202782     0.000000000     2.381067753
65    1      7.143202782     0.000000000     7.143202782
66    1      7.143202782     0.000000000    11.905338287
67    1      7.143202782     4.762135506     2.381067753
68    1      7.143202782     4.762135506     7.143202782
69    1      7.143202782     4.762135506    11.905338287
70    1      7.143202782     9.524271011     2.381067753
71    1      7.143202782     9.524271011     7.143202782
72    1      7.143202782     9.524271011    11.905338287
73    1     11.905338287     0.000000000     2.381067753
74    1     11.905338287     0.000000000     7.143202782
75    1     11.905338287     0.000000000    11.905338287
76    1     11.905338287     4.762135506     2.381067753
77    1     11.905338287     4.762135506     7.143202782
78    1     11.905338287     4.762135506    11.905338287
79    1     11.905338287     9.524271011     2.381067753
80    1     11.905338287     9.524271011     7.143202782
81    1     11.905338287     9.524271011    11.905338287
82    1      2.381067753     2.381067753     0.000000000
83    1      2.381067753     2.381067753     4.762135506
84    1      2.381067753     2.381067753     9.524271011
85    1      2.381067753     7.143202782     0.000000000
86    1      2.381067753     7.143202782     4.762135506
87    1      2.381067753     7.143202782     9.524271011
88    1      2.381067753    11.905338287     0.000000000
89    1      2.381067753    11.905338287     4.762135506
90    1      2.381067753    11.905338287     9.524271011
91    1      7.143202782     2.381067753     0.000000000
92    1      7.143202782     2.381067753     4.762135506
93    1      7.143202782     2.381067753     9.524271011
94    1      7.143202782     7.143202782     0.000000000
95    1      7.143202782     7.143202782     4.762135506
96    1      7.143202782     7.143202782     9.524271011
97    1      7.143202782    11.905338287     0.000000000
98    1      7.143202782    11.905338287     4.762135506
99    1      7.143202782    11.905338287     9.524271011
100   1     11.905338287     2.381067753     0.000000000
101   1     11.905338287     2.381067753     4.762135506
102   1     11.905338287     2.381067753     9.524271011
103   1     11.905338287     7.143202782     0.000000000
104   1     11.905338287     7.143202782     4.762135506
105   1     11.905338287     7.143202782     9.524271011
106   1     11.905338287    11.905338287     0.000000000
107   1     11.905338287    11.905338287     4.762135506
108   1     11.905338287    11.905338287     9.524271011
109   2      3.571601391     3.571601391     3.571601391
110   2      3.571601391     3.571601391     8.333737373
111   2      3.571601391     3.571601391    13.095871925
112   2      3.571601391     8.333737373     3.571601391
113   2      3.571601391     8.333737373     8.333737373
114   2      3.571601391     8.333737373    13.095871925
115   2      3.571601391    13.095871925     3.571601391
116   2      3.571601391    13.095871925     8.333737373
117   2      3.571601391    13.095871925    13.095871925
118   2      8.333737373     3.571601391     3.571601391
119   2      8.333737373     3.571601391     8.333737373
120   2      8.333737373     3.571601391     13.095871925
121   2      8.333737373     8.333737373     3.571601391
122   2      8.333737373     8.333737373     8.333737373
123   2      8.333737373     8.333737373    13.095871925
124   2      8.333737373    13.095871925     3.571601391
125   2      8.333737373    13.095871925     8.333737373
126   2      8.333737373    13.095871925    13.095871925
127   2     13.095871925     3.571601391     3.571601391
128   2     13.095871925     3.571601391     8.333737373
129   2     13.095871925     3.571601391    13.095871925
130   2     13.095871925     8.333737373     3.571601391
131   2     13.095871925     8.333737373     8.333737373
132   2     13.095871925     8.333737373    13.095871925
133   2     13.095871925    13.095871925     3.571601391
134   2     13.095871925    13.095871925     8.333737373
135   2     13.095871925    13.095871925    13.095871925
136   2      3.571601391     1.190533876     3.571601391
137   2      3.571601391     1.190533876     8.333737373
138   2      3.571601391     1.190533876    13.095871925
139   2      3.571601391     5.952669144     3.571601391
140   2      3.571601391     5.952669144     8.333737373
141   2      3.571601391     5.952669144    13.095871925
142   2      3.571601391    10.714803696     3.571601391
143   2      3.571601391    10.714803696     8.333737373
144   2      3.571601391    10.714803696    13.095871925
145   2      8.333737373     1.190533876     3.571601391
146   2      8.333737373     1.190533876     8.333737373
147   2      8.333737373     1.190533876    13.095871925
148   2      8.333737373     5.952669144     3.571601391
149   2      8.333737373     5.952669144     8.333737373
150   2      8.333737373     5.952669144    13.095871925
151   2      8.333737373    10.714803696     3.571601391
152   2      8.333737373    10.714803696     8.333737373
153   2      8.333737373    10.714803696    13.095871925
154   2     13.095871925     1.190533876     3.571601391
155   2     13.095871925     1.190533876     8.333737373
156   2     13.095871925     1.190533876    13.095871925
157   2     13.095871925     5.952669144     3.571601391
158   2     13.095871925     5.952669144     8.333737373
159   2     13.095871925     5.952669144    13.0958719251
160   2     13.095871925    10.714803696     3.571601391
161   2     13.095871925    10.714803696     8.333737373
162   2     13.095871925    10.714803696    13.095871925
163   2      3.571601391     1.190533876     1.190533876
164   2      3.571601391     1.190533876     5.952669144
165   2      3.571601391     1.190533876    10.714803696
166   2      3.571601391     5.952669144     1.190533876
167   2      3.571601391     5.952669144     5.952669144
168   2      3.571601391     5.952669144    10.714803696
169   2      3.571601391    10.714803696     1.190533876
170   2      3.571601391    10.714803696     5.952669144
171   2      3.571601391    10.714803696    10.714803696
172   2      8.333737373     1.190533876     1.190533876
173   2      8.333737373     1.190533876     5.952669144
174   2      8.333737373     1.190533876    10.714803696
175   2      8.333737373     5.952669144     1.190533876
176   2      8.333737373     5.952669144     5.952669144
177   2      8.333737373     5.952669144    10.714803696
178   2      8.333737373    10.714803696     1.190533876
179   2      8.333737373    10.714803696     5.952669144
180   2      8.333737373    10.714803696    10.714803696
181   2     13.095871925     1.190533876     1.190533876
182   2     13.095871925     1.190533876     5.952669144
183   2     13.095871925     1.190533876    10.714803696
184   2     13.095871925     5.952669144     1.190533876
185   2     13.095871925     5.952669144     5.952669144
186   2     13.095871925     5.952669144    10.714803696
187   2     13.095871925    10.714803696     1.190533876
188   2     13.095871925    10.714803696     5.952669144
189   2     13.095871925    10.714803696    10.714803696
190   2      3.571601391     3.571601391     1.190533876
191   2      3.571601391     3.571601391     5.952669144
192   2      3.571601391     3.571601391    10.714803696
193   2      3.571601391     8.333737373     1.190533876
194   2      3.571601391     8.333737373     5.952669144
195   2      3.571601391     8.333737373    10.714803696
196   2      3.571601391    13.095871925     1.190533876
197   2      3.571601391    13.095871925     5.952669144
198   2      3.571601391    13.095871925    10.714803696
199   2      8.333737373     3.571601391     1.190533876
200   2      8.333737373     3.571601391     5.952669144
201   2      8.333737373     3.571601391    10.714803696
202   2      8.333737373     8.333737373     1.190533876
203   2      8.333737373     8.333737373     5.952669144
204   2      8.333737373     8.333737373    10.714803696
205   2      8.333737373    13.095871925     1.190533876
206   2      8.333737373    13.095871925     5.952669144
207   2      8.333737373    13.095871925    10.714803696
208   2     13.095871925     3.571601391     1.190533876
209   2     13.095871925     3.571601391     5.952669144
210   2     13.095871925     3.571601391    10.714803696
211   2     13.095871925     8.333737373     1.190533876
212   2     13.095871925     8.333737373     5.952669144
213   2     13.095871925     8.333737373    10.714803696
214   2     13.095871925    13.095871925     1.190533876
215   2     13.095871925    13.095871925     5.952669144
216   2     13.095871925    13.095871925    10.714803696
217   2      1.190533876     3.571601391     1.190533876
218   2      1.190533876     3.571601391     5.952669144
219   2      1.190533876     3.571601391    10.714803696
220   2      1.190533876     8.333737373     1.190533876
221   2      1.190533876     8.333737373     5.952669144
222   2      1.190533876     8.333737373    10.714803696
223   2      1.190533876    13.095871925     1.190533876
224   2      1.190533876    13.095871925     5.952669144
225   2      1.190533876    13.095871925    10.714803696
226   2      5.952669144     3.571601391     1.190533876
227   2      5.952669144     3.571601391     5.952669144
228   2      5.952669144     3.571601391    10.714803696
229   2      5.952669144     8.333737373     1.190533876
230   2      5.952669144     8.333737373     5.952669144
231   2      5.952669144     8.333737373    10.714803696
232   2      5.952669144    13.095871925     1.190533876
233   2      5.952669144    13.095871925     5.952669144
234   2      5.952669144    13.095871925    10.714803696
235   2     10.714803696     3.571601391     1.190533876
236   2     10.714803696     3.571601391     5.952669144
237   2     10.714803696     3.571601391    10.714803696
238   2     10.714803696     8.333737373     1.190533876
239   2     10.714803696     8.333737373     5.952669144
240   2     10.714803696     8.333737373    10.714803696
241   2     10.714803696    13.095871925     1.190533876
242   2     10.714803696    13.095871925     5.952669144
243   2     10.714803696    13.095871925    10.714803696
244   2      1.190533876     1.190533876     1.190533876
245   2      1.190533876     1.190533876     5.952669144
246   2      1.190533876     1.190533876    10.714803696
247   2      1.190533876     5.952669144     1.190533876
248   2      1.190533876     5.952669144     5.952669144
249   2      1.190533876     5.952669144    10.714803696
250   2      1.190533876    10.714803696     1.190533876
251   2      1.190533876    10.714803696     5.952669144
252   2      1.190533876    10.714803696    10.714803696
253   2      5.952669144     1.190533876     1.190533876
254   2      5.952669144     1.190533876     5.952669144
255   2      5.952669144     1.190533876    10.714803696
256   2      5.952669144     5.952669144     1.190533876
257   2      5.952669144     5.952669144     5.952669144
258   2      5.952669144     5.952669144    10.714803696
259   2      5.952669144    10.714803696     1.190533876
260   2      5.952669144    10.714803696     5.952669144
261   2      5.952669144    10.714803696    10.714803696
262   2     10.714803696     1.190533876     1.190533876
263   2     10.714803696     1.190533876     5.952669144
264   2     10.714803696     1.190533876    10.714803696
265   2     10.714803696     5.952669144     1.190533876
266   2     10.714803696     5.952669144     5.952669144
267   2     10.714803696     5.952669144    10.714803696
268   2     10.714803696    10.714803696     1.190533876
269   2     10.714803696    10.714803696     5.952669144
270   2     10.714803696    10.714803696    10.714803696
271   2      1.190533876     1.190533876     3.571601391
272   2      1.190533876     1.190533876     8.333737373
273   2      1.190533876     1.190533876    13.095871925
274   2      1.190533876     5.952669144     3.571601391
275   2      1.190533876     5.952669144     8.333737373
276   2      1.190533876     5.952669144    13.095871925
277   2      1.190533876    10.714803696     3.571601391
278   2      1.190533876    10.714803696     8.333737373
279   2      1.190533876    10.714803696    13.095871925
280   2      5.952669144     1.190533876     3.571601391
281   2      5.952669144     1.190533876     8.333737373
282   2      5.952669144     1.190533876    13.095871925
283   2      5.952669144     5.952669144     3.571601391
284   2      5.952669144     5.952669144     8.333737373
285   2      5.952669144     5.952669144    13.095871925
286   2      5.952669144    10.714803696     3.571601391
287   2      5.952669144    10.714803696     8.333737373
288   2      5.952669144    10.714803696    13.095871925
289   2     10.714803696     1.190533876     3.571601391
290   2     10.714803696     1.190533876     8.333737373
291   2     10.714803696     1.190533876    13.095871925
292   2     10.714803696     5.952669144     3.571601391
293   2     10.714803696     5.952669144     8.333737373
294   2     10.714803696     5.952669144    13.095871925
295   2     10.714803696    10.714803696     3.571601391
296   2     10.714803696    10.714803696     8.333737373
297   2     10.714803696    10.714803696    13.095871925
298   2      1.190533876     3.571601391     3.571601391
299   2      1.190533876     3.571601391     8.333737373
300   2      1.190533876     3.571601391    13.095871925
301   2      1.190533876     8.333737373     3.571601391
302   2      1.190533876     8.333737373     8.333737373
303   2      1.190533876     8.333737373    13.095871925
304   2      1.190533876    13.095871925     3.571601391
305   2      1.190533876    13.095871925     8.333737373
306   2      1.190533876    13.095871925    13.095871925
307   2      5.952669144     3.571601391     3.571601391
308   2      5.952669144     3.571601391     8.333737373
309   2      5.952669144     3.571601391    13.095871925
310   2      5.952669144     8.333737373     3.571601391
311   2      5.952669144     8.333737373     8.333737373
312   2      5.952669144     8.333737373    13.095871925
313   2      5.952669144    13.095871925     3.571601391
314   2      5.952669144    13.095871925     8.333737373
315   2      5.952669144    13.095871925    13.095871925
316   2     10.714803696     3.571601391     3.571601391
317   2     10.714803696     3.571601391     8.333737373
318   2     10.714803696     3.571601391    13.095871925
319   2     10.714803696     8.333737373     3.571601391
320   2     10.714803696     8.333737373     8.333737373
321   2     10.714803696     8.333737373    13.095871925
322   2     10.714803696    13.095871925     3.571601391
323   2     10.714803696    13.095871925     8.333737373
324   2     10.714803696    13.095871925    13.095871925
