molecular system: 
5 atoms
0 bonds
0 angles
0 dihedrals
0 impropers
2 atom types
0 bond types
0 angle types
0 dihedral types
0 improper types

0.0 3.866500850966399 xlo xhi
0.0 3.866500850966399 ylo yhi
0.0 3.866500850966399 zlo zhi

Masses

     1  10.811000 # B    B    
     2  15.999400 # O    O    

Atoms

     1      1      1   1.417500   0.000000   1.933250   0.000000 # B
     2      2      1   1.417500   1.933250   0.000000   0.000000 # B
     3      3      2  -0.945000   1.933250   0.000000   1.933250 # O
     4      4      2  -0.945000   1.933250   1.933250   0.000000 # O
     5      5      2  -0.945000   1.933250   1.933250   1.933250 # O

PairIJ Coeffs

  1   1     11170.529153     0.350000         0.000000 # B-B
  1   2   4772191.415340     0.124000       807.160667 # B-O
  2   2    208070.476335     0.265000      1962.270404 # O-O
